/*--------------------------------*- C++ -*----------------------------------*\
| =========                 |                                                 |
| \\      /  F ield         | OpenFOAM: The Open Source CFD Toolbox           |
|  \\    /   O peration     | Version:  2.4.x                                 |
|   \\  /    A nd           | Web:      www.OpenFOAM.org                      |
|    \\/     M anipulation  |                                                 |
\*---------------------------------------------------------------------------*/
FoamFile
{
    version     2.0;
    format      ascii;
    class       volScalarField;
    location    "9960/coolant";
    object      epsilon;
}
// * * * * * * * * * * * * * * * * * * * * * * * * * * * * * * * * * * * * * //

dimensions      [0 2 -3 0 0 0 0];

internalField   nonuniform List<scalar> 
109760
(
0.00655272
0.00200472
0.000781585
0.000364984
0.000195498
0.000116907
7.71188e-05
5.62731e-05
4.60591e-05
4.27838e-05
4.46915e-05
5.0778e-05
6.02371e-05
7.22432e-05
8.59362e-05
0.000100504
0.000115268
0.000129734
0.000143578
0.000156626
0.000168803
0.000180109
0.00019059
0.000200315
0.000209367
0.000217824
0.000225758
0.000233229
0.000240294
0.000247012
0.000253448
0.000259664
0.000265685
0.000271472
0.000276736
0.00656672
0.00200966
0.00080848
0.000426084
0.000300949
0.000275886
0.000294431
0.000330784
0.000371814
0.000411096
0.000446005
0.000475947
0.0005013
0.000522757
0.000541068
0.000556887
0.000570776
0.000583187
0.000594475
0.000604919
0.000614733
0.000624083
0.000633091
0.000641851
0.000650428
0.000658851
0.000667112
0.00067518
0.000683042
0.00069074
0.000698398
0.000706168
0.0007141
0.000722005
0.000729193
0.0133107
0.00674368
0.00469385
0.00396389
0.00365992
0.0035182
0.00345207
0.00342532
0.00342004
0.00342662
0.0034392
0.00345347
0.00346624
0.00347495
0.00347787
0.00347396
0.00346292
0.00344501
0.00342092
0.00339162
0.00335818
0.00332168
0.00328309
0.00324332
0.00320312
0.00316309
0.00312366
0.00308507
0.00304731
0.00301026
0.00297386
0.00293865
0.00290572
0.00287841
0.0028565
0.00692878
0.00239524
0.0013968
0.00118455
0.00116638
0.00119222
0.00122318
0.00125029
0.00127283
0.00129192
0.00130869
0.00132405
0.00133865
0.00135292
0.00136718
0.00138163
0.00139639
0.00141153
0.00142709
0.00144309
0.00145952
0.00147636
0.0014936
0.00151122
0.00152921
0.00154748
0.00156586
0.00158412
0.00160212
0.00161995
0.00163811
0.00165725
0.00167768
0.00169862
0.00171815
0.0134165
0.0064513
0.004407
0.00371366
0.00343237
0.00330338
0.00324317
0.00321919
0.00321615
0.00322568
0.00324332
0.00326651
0.00329368
0.00332381
0.00335617
0.00339011
0.00342502
0.00346029
0.00349532
0.00352959
0.00356267
0.0035942
0.00362394
0.00365176
0.00367763
0.00370158
0.00372369
0.003744
0.00376251
0.00377921
0.00379425
0.00380813
0.00382204
0.00383669
0.00385864
0.00656236
0.00200496
0.000800116
0.000412584
0.000280936
0.000249108
0.000262168
0.000295116
0.00033462
0.000373621
0.000408908
0.000439505
0.000465556
0.000487653
0.000506503
0.000522776
0.000537046
0.000549786
0.000561379
0.00057212
0.000582235
0.000591897
0.000601241
0.000610368
0.000619349
0.000628222
0.000636989
0.000645639
0.000654175
0.000662663
0.000671238
0.000680035
0.000689043
0.000698001
0.000705817
0.00655209
0.00199753
0.000776716
0.000361718
0.000192817
0.000113804
7.26289e-05
4.92683e-05
3.50811e-05
2.59753e-05
1.98586e-05
1.5591e-05
1.25168e-05
1.02414e-05
8.51757e-06
7.18561e-06
6.13924e-06
5.30629e-06
4.6372e-06
4.09788e-06
3.66547e-06
3.32564e-06
3.07092e-06
2.89972e-06
2.8158e-06
2.82787e-06
2.94937e-06
3.19811e-06
3.59577e-06
4.16726e-06
4.9396e-06
5.94073e-06
7.19645e-06
8.72651e-06
1.04951e-05
0.00658151
0.00202554
0.00085051
0.000500207
0.000407552
0.000409494
0.000445767
0.000490622
0.000533415
0.000570561
0.000601523
0.000627098
0.00064839
0.000666404
0.000681956
0.000695677
0.000708035
0.000719375
0.000729941
0.000739904
0.000749379
0.000758439
0.000767129
0.000775476
0.000783499
0.000791209
0.000798604
0.000805677
0.000812425
0.000818872
0.000825102
0.000831255
0.000837507
0.000843929
0.000850646
0.00655225
0.0020021
0.00077939
0.000363331
0.000193803
0.000114435
7.30589e-05
4.95874e-05
3.53502e-05
2.62453e-05
2.01843e-05
1.60421e-05
1.31911e-05
1.12786e-05
1.01152e-05
9.61329e-06
9.74988e-06
1.05401e-05
1.20155e-05
1.4206e-05
1.71242e-05
2.07549e-05
2.5049e-05
2.99237e-05
3.52701e-05
4.09639e-05
4.68774e-05
5.2892e-05
5.89069e-05
6.48445e-05
7.06506e-05
7.62951e-05
8.17594e-05
8.70233e-05
9.196e-05
0.0073399
0.00282848
0.00187917
0.00167836
0.00164789
0.0016546
0.00166829
0.00168217
0.00169471
0.00170506
0.00171241
0.00171587
0.00171449
0.0017077
0.00169542
0.00167801
0.00165615
0.00163069
0.00160254
0.00157256
0.00154149
0.00150999
0.00147854
0.00144755
0.00141732
0.00138812
0.00136013
0.00133345
0.00130798
0.00128344
0.00125936
0.00123524
0.00121125
0.00118813
0.0011698
0.00710116
0.0026426
0.00170933
0.0015217
0.0015033
0.00151855
0.00153703
0.00155263
0.00156496
0.00157449
0.00158081
0.00158327
0.00158119
0.00157412
0.001562
0.00154516
0.00152424
0.00150003
0.0014734
0.00144515
0.001416
0.00138655
0.00135727
0.00132852
0.00130058
0.0012736
0.00124761
0.00122248
0.00119805
0.00117425
0.00115141
0.00113041
0.00111282
0.00109962
0.00109273
0.00761854
0.00312543
0.00219887
0.00199213
0.00194349
0.0019321
0.00193085
0.00193304
0.00193768
0.00194376
0.00194949
0.00195309
0.00195315
0.0019486
0.00193899
0.00192433
0.00190505
0.00188179
0.00185533
0.00182651
0.00179607
0.00176472
0.00173301
0.0017014
0.00167027
0.00163993
0.00161064
0.00158256
0.0015557
0.00152987
0.00150468
0.00147962
0.00145475
0.00143026
0.00141118
0.00746977
0.00296335
0.00202294
0.00181649
0.00177534
0.00177153
0.00177537
0.0017807
0.00178728
0.00179434
0.00180052
0.00180439
0.00180474
0.00180072
0.00179193
0.00177838
0.00176047
0.00173883
0.00171421
0.00168741
0.00165917
0.00163013
0.00160085
0.00157176
0.00154321
0.00151545
0.00148859
0.00146262
0.00143738
0.00141273
0.00138875
0.00136597
0.00134578
0.00132932
0.00132062
0.0254406
0.0121467
0.0078125
0.00640696
0.00584366
0.00557585
0.0054412
0.00537664
0.00535343
0.00535521
0.00537335
0.00540284
0.00544058
0.0054845
0.00553312
0.0055852
0.00563964
0.00569537
0.00575142
0.00580689
0.00586105
0.0059133
0.00596317
0.00601038
0.00605479
0.00609637
0.00613513
0.00617108
0.0062042
0.00623458
0.00626253
0.00628907
0.00631529
0.00634307
0.00637349
0.00657059
0.0020224
0.000829577
0.000458558
0.000346894
0.00033529
0.000365014
0.000409105
0.000454409
0.000495257
0.000529971
0.000558676
0.000582173
0.000601341
0.00061692
0.000629485
0.000639473
0.000647251
0.000653122
0.000657363
0.000660225
0.000661939
0.000662727
0.00066279
0.000662313
0.000661455
0.000660343
0.000659074
0.000657714
0.000656309
0.000654913
0.000653604
0.000652571
0.000651934
0.000652653
0.0065985
0.00204761
0.000896261
0.000571081
0.000500079
0.000516949
0.000560987
0.000608271
0.000650358
0.000685401
0.000714002
0.000737441
0.000756931
0.000773469
0.000787807
0.000800469
0.0008118
0.000822032
0.000831316
0.000839757
0.000847433
0.000854398
0.000860704
0.000866407
0.000871566
0.000876242
0.000880493
0.000884365
0.000887892
0.000891107
0.000894076
0.00089691
0.000899863
0.000903063
0.000907816
0.00671294
0.00218208
0.00112234
0.000877049
0.000855785
0.000892338
0.000936366
0.000974508
0.00100515
0.00102948
0.00104933
0.00106608
0.00108072
0.00109403
0.00110658
0.00111872
0.00113071
0.00114268
0.00115471
0.00116681
0.00117896
0.00119112
0.00120324
0.00121526
0.00122714
0.00123882
0.00125022
0.00126129
0.00127195
0.00128221
0.0012922
0.00130217
0.00131244
0.00132312
0.00133443
0.00717905
0.00264886
0.00166875
0.00145092
0.00141674
0.00142528
0.00144199
0.001459
0.00147484
0.0014896
0.00150358
0.00151698
0.00152993
0.00154244
0.00155437
0.00156552
0.00157567
0.0015846
0.00159216
0.00159828
0.00160296
0.00160625
0.00160828
0.00160919
0.00160915
0.00160834
0.00160692
0.001605
0.00160262
0.00159981
0.00159663
0.00159324
0.00159044
0.00158838
0.00159294
0.0308855
0.0133926
0.00858117
0.00715707
0.00659503
0.0063295
0.00619825
0.00614037
0.00612528
0.00613655
0.00616493
0.00620482
0.00625281
0.00630668
0.00636476
0.0064256
0.00648793
0.00655059
0.00661252
0.00667279
0.00673064
0.00678551
0.00683707
0.00688518
0.00692991
0.00697142
0.00700981
0.00704509
0.00707715
0.00710612
0.00713259
0.0071582
0.00718418
0.00721217
0.00724074
0.00657081
0.00201065
0.000822158
0.000454413
0.000343879
0.000331382
0.000358743
0.000399883
0.000442517
0.000481422
0.000514996
0.000543315
0.000567092
0.000587186
0.000604394
0.000619391
0.000632728
0.000644842
0.000656071
0.000666673
0.000676842
0.000686723
0.000696426
0.000706035
0.000715601
0.00072514
0.000734633
0.000744045
0.000753369
0.000762679
0.00077213
0.000781878
0.000791896
0.000801864
0.000810478
0.0127425
0.00616023
0.00424832
0.00360178
0.00334104
0.00322048
0.00316215
0.00313658
0.00313068
0.00313705
0.00315154
0.00317172
0.00319609
0.00322371
0.00325394
0.0032863
0.00332032
0.00335557
0.0033916
0.00342798
0.00346432
0.00350026
0.00353551
0.00356982
0.00360305
0.00363508
0.00366578
0.003695
0.00372259
0.00374848
0.0037729
0.00379652
0.00382069
0.00384549
0.00387831
0.00658279
0.00204985
0.000882285
0.000542445
0.000464205
0.000480395
0.000527818
0.000579766
0.000625483
0.000661461
0.000686911
0.000702184
0.000708752
0.000708093
0.000701691
0.000690979
0.000677253
0.000661612
0.000644934
0.000627875
0.000610901
0.000594318
0.000578326
0.000563043
0.000548541
0.000534852
0.000521982
0.000509894
0.000498485
0.000487583
0.000476987
0.000466548
0.000456424
0.000446921
0.000439874
0.006583
0.00205021
0.000882673
0.000543005
0.000465024
0.000481353
0.0005287
0.000580424
0.000625867
0.000661581
0.000686832
0.000701958
0.00070842
0.000707681
0.000701218
0.000690456
0.000676691
0.000661018
0.000644313
0.000627232
0.000610244
0.000593662
0.000577687
0.00056244
0.000547971
0.000534277
0.000521302
0.000508958
0.000497178
0.000485977
0.000475553
0.000466268
0.000458598
0.000452444
0.000448046
0.00810516
0.00345653
0.00247239
0.00222473
0.00214906
0.00212316
0.00211635
0.00211823
0.00212391
0.00212987
0.00213415
0.00213504
0.00213073
0.00212002
0.00210247
0.00207834
0.00204843
0.00201379
0.00197561
0.00193504
0.00189315
0.00185076
0.00180855
0.0017671
0.00172684
0.00168796
0.00165037
0.0016138
0.00157792
0.00154279
0.00150935
0.00147982
0.0014572
0.00144354
0.00143677
0.00852362
0.00373704
0.00268402
0.00239373
0.00229357
0.00225545
0.00224357
0.00224429
0.0022509
0.00225861
0.00226506
0.00226789
0.002265
0.00225504
0.00223757
0.00221287
0.00218182
0.00214556
0.00210541
0.00206259
0.00201824
0.00197323
0.00192826
0.00188393
0.00184076
0.00179917
0.00175949
0.00172183
0.00168596
0.00165116
0.00161634
0.00158056
0.00154393
0.00150917
0.00148011
0.00655256
0.00200457
0.000781362
0.000364656
0.00019485
0.000115672
7.49423e-05
5.26622e-05
4.03535e-05
3.41899e-05
3.2402e-05
3.41574e-05
3.90001e-05
4.65446e-05
5.63249e-05
6.77664e-05
8.02441e-05
9.31721e-05
0.000106074
0.000118611
0.000130573
0.000141855
0.000152426
0.000162301
0.000171526
0.000180157
0.000188253
0.000195869
0.000203059
0.000209881
0.000216393
0.000222658
0.000228706
0.000234508
0.000239849
0.0202313
0.00999894
0.00666217
0.00556534
0.0051198
0.00490862
0.00480706
0.00476303
0.00474978
0.00475226
0.0047603
0.00476677
0.0047661
0.00475452
0.00473014
0.00469271
0.00464318
0.00458331
0.00451523
0.00444115
0.00436311
0.00428292
0.004202
0.00412156
0.00404257
0.00396585
0.003892
0.00382132
0.0037536
0.00368805
0.00362328
0.0035586
0.00349319
0.00343569
0.00337402
0.00657205
0.00202455
0.000834269
0.000465515
0.000355674
0.000345167
0.000375324
0.000419451
0.0004646
0.000505184
0.000539518
0.000567721
0.000590589
0.000608956
0.00062351
0.000634803
0.000643263
0.000649341
0.000653398
0.00065576
0.000656732
0.000656596
0.000655608
0.000653996
0.000651957
0.00064965
0.0006472
0.000644697
0.000642197
0.000639739
0.000637371
0.000635171
0.000633329
0.000631956
0.000632106
0.0605309
0.0295898
0.0185226
0.0151204
0.0137636
0.0131001
0.0127531
0.0125715
0.0124842
0.0124523
0.0124528
0.0124703
0.0124931
0.0125117
0.0125191
0.0125106
0.0124837
0.0124375
0.012373
0.0122921
0.0121975
0.0120921
0.0119787
0.01186
0.0117384
0.0116158
0.0114939
0.011374
0.011257
0.0111432
0.0110323
0.0109255
0.0108189
0.0107316
0.0106023
0.0862734
0.0385189
0.0234587
0.0188987
0.0170911
0.0162258
0.0157757
0.0155496
0.0154531
0.0154347
0.0154668
0.0155342
0.0156278
0.0157414
0.0158711
0.0160139
0.0161674
0.0163299
0.0164996
0.0166753
0.0168559
0.0170405
0.0172284
0.0174192
0.0176122
0.0178063
0.0180001
0.018192
0.0183818
0.0185718
0.0187659
0.0189677
0.0191763
0.0193717
0.0195935
0.00838928
0.00374247
0.00269366
0.00239181
0.0022818
0.00223472
0.002214
0.00220738
0.00220858
0.00221425
0.00222212
0.00223025
0.0022371
0.00224135
0.00224207
0.00223872
0.00223115
0.00221952
0.00220426
0.00218591
0.00216513
0.00214252
0.00211868
0.00209413
0.00206933
0.00204463
0.00202032
0.00199653
0.00197327
0.00195045
0.00192801
0.00190612
0.00188571
0.00186768
0.00185737
0.00657727
0.00201932
0.000839068
0.000481644
0.000381679
0.000377862
0.000410821
0.000454678
0.000497975
0.000536264
0.000568523
0.00059514
0.000617226
0.000635812
0.000651771
0.000665772
0.000678329
0.000689835
0.000700579
0.000710766
0.00072054
0.000729995
0.000739192
0.000748165
0.000756932
0.000765493
0.000773832
0.000781927
0.000789762
0.000797368
0.00080484
0.000812322
0.000819942
0.000827671
0.000835181
0.00754031
0.00306057
0.00214803
0.00194091
0.00189066
0.00188012
0.00188199
0.00188848
0.0018964
0.00190305
0.00190734
0.00190801
0.00190363
0.00189328
0.00187672
0.00185426
0.00182669
0.00179499
0.00176024
0.00172348
0.00168564
0.00164745
0.00160949
0.00157227
0.00153614
0.00150126
0.00146755
0.00143476
0.00140268
0.00137142
0.00134191
0.00131602
0.00129624
0.00128364
0.00127651
0.0076541
0.00314639
0.00221972
0.0020002
0.00194172
0.00192678
0.00192672
0.0019327
0.00194091
0.00194815
0.00195318
0.00195453
0.00195066
0.0019406
0.00192408
0.00190143
0.00187347
0.00184119
0.00180574
0.00176818
0.00172945
0.00169029
0.00165127
0.00161291
0.0015756
0.00153971
0.00150548
0.00147298
0.00144197
0.00141184
0.00138171
0.00135091
0.00131979
0.00129047
0.00126724
0.00655227
0.00200319
0.000780043
0.000363722
0.000194052
0.000114601
7.31726e-05
4.96646e-05
3.53967e-05
2.62598e-05
2.01576e-05
1.5956e-05
1.30141e-05
1.09617e-05
9.5871e-06
8.77732e-06
8.48441e-06
8.7034e-06
9.4554e-06
1.07724e-05
1.26834e-05
1.52033e-05
1.83236e-05
2.20091e-05
2.61976e-05
3.08052e-05
3.57333e-05
4.08792e-05
4.61446e-05
5.1444e-05
5.67094e-05
6.18935e-05
6.69652e-05
7.1897e-05
7.66072e-05
0.00882397
0.00408259
0.00297992
0.00264609
0.00251971
0.00246339
0.00243652
0.00242528
0.00242277
0.00242551
0.00243111
0.00243764
0.00244334
0.00244671
0.00244673
0.00244273
0.00243444
0.00242194
0.00240559
0.00238592
0.00236354
0.00233911
0.00231323
0.00228646
0.0022593
0.00223214
0.00220535
0.00217919
0.00215386
0.0021294
0.00210573
0.00208259
0.00205998
0.00203771
0.00201942
0.00708174
0.00255733
0.00157496
0.0013671
0.00134383
0.00136024
0.00138149
0.00140054
0.00141692
0.00143147
0.00144498
0.00145801
0.0014709
0.00148383
0.00149684
0.00150987
0.00152279
0.00153541
0.00154754
0.00155903
0.00156974
0.0015796
0.00158855
0.00159661
0.00160381
0.00161022
0.00161591
0.00162095
0.00162535
0.00162914
0.00163236
0.00163518
0.00163813
0.0016415
0.00164873
0.0125381
0.00584195
0.0039795
0.00336288
0.0031268
0.00302904
0.00299051
0.00298147
0.00298895
0.00300628
0.00302975
0.0030574
0.00308791
0.00312067
0.00315539
0.00319183
0.00322985
0.00326924
0.00330982
0.00335138
0.00339369
0.00343655
0.00347974
0.00352311
0.00356648
0.00360961
0.00365214
0.00369367
0.00373388
0.00377289
0.0038115
0.00385107
0.00389308
0.00393631
0.00398383
0.0726083
0.0350929
0.0218503
0.0177851
0.0161429
0.0153283
0.0149009
0.0146791
0.0145724
0.0145321
0.0145282
0.0145405
0.0145535
0.0145555
0.0145386
0.014498
0.0144321
0.0143414
0.0142284
0.0140965
0.0139497
0.0137919
0.0136268
0.0134577
0.0132872
0.0131178
0.0129513
0.0127889
0.0126311
0.0124783
0.0123294
0.0121858
0.012043
0.011927
0.0117612
0.0646634
0.0309437
0.0190277
0.0154522
0.0140312
0.0133356
0.0129779
0.0127983
0.012718
0.0126948
0.0127032
0.0127247
0.0127458
0.0127559
0.0127477
0.0127171
0.0126627
0.0125852
0.012487
0.0123716
0.0122427
0.0121041
0.0119592
0.0118109
0.0116618
0.0115136
0.0113677
0.0112249
0.0110854
0.0109498
0.0108189
0.0106965
0.0105811
0.0104967
0.0103699
0.00712519
0.00265187
0.00172308
0.00152948
0.00150189
0.00150956
0.00152293
0.00153647
0.00154961
0.00156264
0.00157569
0.00158885
0.00160234
0.00161631
0.00163079
0.00164573
0.00166104
0.00167658
0.00169219
0.00170768
0.0017229
0.00173771
0.001752
0.00176572
0.00177885
0.00179139
0.00180333
0.0018146
0.00182511
0.00183483
0.00184395
0.00185283
0.00186223
0.00187189
0.00188606
0.00655872
0.0020046
0.000791579
0.000393157
0.00024839
0.000202153
0.00020194
0.00022498
0.000258679
0.000295343
0.000330584
0.00036234
0.000390012
0.000413779
0.000434141
0.000451679
0.000466959
0.000480469
0.000492614
0.000503709
0.000513995
0.000523662
0.000532855
0.000541681
0.000550218
0.000558514
0.000566589
0.000574452
0.000582123
0.000589658
0.000597151
0.000604704
0.000612329
0.000619872
0.000626682
0.00657076
0.00201095
0.000822589
0.000455565
0.000346327
0.000335393
0.000364179
0.000406395
0.000449712
0.000488871
0.000522401
0.000550478
0.000573914
0.000593644
0.000610506
0.000625198
0.000638285
0.000650198
0.000661267
0.000671731
0.000681762
0.000691481
0.000700972
0.000710289
0.000719462
0.000728495
0.000737369
0.000746065
0.000754572
0.000762934
0.000771262
0.000779691
0.000788273
0.000796864
0.000804729
0.00675946
0.00222346
0.00118621
0.000957754
0.000943319
0.00097989
0.00102122
0.00105644
0.00108483
0.00110788
0.00112714
0.00114378
0.0011587
0.00117257
0.00118586
0.00119895
0.00121203
0.00122528
0.00123879
0.00125258
0.00126667
0.00128102
0.0012956
0.00131038
0.00132529
0.00134025
0.00135515
0.00136984
0.00138424
0.00139839
0.00141258
0.00142719
0.00144248
0.00145826
0.00147274
0.00656023
0.002015
0.000801194
0.000403575
0.000261509
0.000219282
0.000223387
0.00025011
0.000286366
0.00032449
0.000360367
0.000392193
0.000419541
0.000442658
0.000462031
0.000478161
0.0004915
0.000502439
0.000511312
0.000518417
0.000524009
0.000528321
0.000531565
0.000533942
0.000535635
0.000536806
0.000537592
0.000538103
0.00053842
0.000538608
0.000538728
0.000538855
0.000539121
0.000539638
0.000540907
0.00668448
0.00218056
0.00111907
0.000875241
0.000861577
0.00090772
0.000960222
0.0010044
0.00103799
0.00106182
0.00107655
0.00108356
0.00108377
0.00107794
0.0010669
0.0010516
0.00103306
0.00101222
0.000989958
0.000966964
0.000943782
0.000920814
0.000898353
0.000876606
0.000855725
0.00083582
0.00081694
0.000799096
0.000782176
0.000765907
0.000749924
0.000733898
0.000718015
0.000702777
0.000691291
0.00669059
0.00218902
0.00113531
0.000894648
0.000879732
0.000922493
0.000971645
0.00101328
0.00104511
0.0010678
0.00108213
0.00108891
0.00108901
0.00108311
0.001072
0.00105663
0.00103798
0.00101701
0.000994597
0.000971446
0.00094811
0.000924991
0.000902416
0.000880594
0.000859657
0.000839639
0.000820482
0.000802067
0.000784291
0.00076721
0.000751202
0.000736976
0.000725508
0.0007168
0.000711229
0.00655244
0.00200488
0.000781232
0.000364465
0.000194497
0.000114921
7.34983e-05
5.01152e-05
3.61181e-05
2.74582e-05
2.21386e-05
1.91652e-05
1.80736e-05
1.86854e-05
2.09577e-05
2.48745e-05
3.03685e-05
3.72804e-05
4.53576e-05
5.42824e-05
6.37184e-05
7.33538e-05
8.29323e-05
9.22656e-05
0.000101237
0.00010978
0.000117864
0.000125487
0.000132668
0.000139433
0.000145819
0.000151871
0.000157622
0.000163083
0.00016816
0.00655438
0.00200457
0.000782952
0.000370993
0.00020861
0.000140252
0.000114699
0.00011238
0.000124171
0.000144516
0.000169349
0.00019565
0.000221399
0.000245451
0.000267316
0.000286893
0.000304313
0.000319814
0.000333634
0.000346066
0.000357351
0.000367692
0.00037726
0.000386196
0.000394614
0.000402601
0.000410218
0.000417508
0.000424514
0.000431297
0.00043794
0.000444521
0.00045105
0.000457431
0.000463173
0.00659908
0.00206763
0.000916768
0.000596141
0.000534527
0.000561636
0.0006135
0.000665332
0.000709266
0.000744239
0.000771289
0.000791809
0.000806937
0.000817514
0.000824174
0.000827417
0.000827702
0.00082549
0.00082125
0.000815439
0.000808481
0.000800752
0.000792569
0.000784184
0.000775797
0.000767556
0.000759569
0.000751913
0.000744632
0.000737732
0.000731199
0.000724967
0.000719076
0.000713368
0.000709401
0.00677538
0.00227138
0.00123463
0.0010072
0.000998995
0.0010426
0.00108901
0.0011264
0.00115423
0.00117479
0.00118976
0.00120018
0.00120638
0.0012088
0.00120768
0.00120324
0.00119583
0.0011859
0.00117394
0.00116045
0.00114592
0.00113076
0.0011153
0.00109984
0.0010846
0.00106973
0.00105533
0.00104145
0.00102803
0.00101503
0.00100242
0.000990298
0.000979186
0.000969334
0.000964054
0.00920767
0.00411627
0.0028821
0.00249965
0.00235379
0.00229293
0.00227013
0.00226702
0.00227466
0.0022882
0.00230506
0.00232373
0.00234325
0.00236291
0.00238204
0.00240002
0.00241628
0.00243039
0.00244206
0.00245115
0.00245766
0.00246172
0.00246355
0.00246343
0.00246168
0.00245862
0.00245452
0.00244958
0.0024439
0.00243747
0.00243038
0.00242297
0.00241645
0.00241162
0.00241522
0.00663567
0.00209501
0.000986535
0.000701537
0.000659631
0.000691718
0.000740041
0.000785469
0.000823259
0.000853461
0.000877649
0.000897442
0.000914146
0.000928724
0.000941802
0.000953818
0.000965055
0.000975671
0.000985752
0.000995341
0.00100446
0.0010131
0.0010213
0.00102906
0.00103641
0.00104338
0.00104999
0.00105622
0.00106204
0.00106746
0.00107259
0.00107764
0.00108292
0.00108845
0.00109499
0.00655287
0.0020083
0.000783239
0.000366033
0.000196443
0.00011804
7.86887e-05
5.85359e-05
4.92712e-05
4.71768e-05
5.04478e-05
5.80253e-05
6.90586e-05
8.26842e-05
9.79936e-05
0.000114105
0.000130265
0.000145912
0.000160692
0.000174427
0.000187061
0.000198622
0.000209179
0.000218822
0.000227644
0.000235733
0.000243169
0.000250033
0.000256376
0.000262261
0.000267752
0.000272927
0.000277853
0.000282555
0.000286923
0.0065543
0.00201122
0.000786797
0.000371944
0.000206841
0.000135515
0.000106416
0.000100025
0.000107659
0.000124363
0.000146521
0.000171239
0.000196327
0.000220317
0.000242375
0.000262158
0.000279599
0.00029479
0.000307894
0.000319084
0.000328569
0.000336577
0.000343315
0.000348975
0.000353726
0.000357732
0.000361133
0.000364053
0.000366593
0.000368842
0.000370883
0.000372803
0.000374692
0.000376637
0.000378754
0.00685449
0.0023632
0.00135399
0.00114328
0.00113944
0.00117979
0.0012204
0.00125243
0.00127646
0.00129446
0.00130786
0.0013175
0.00132358
0.00132612
0.00132519
0.00132095
0.00131367
0.00130372
0.00129158
0.00127771
0.00126261
0.00124668
0.00123032
0.00121382
0.00119744
0.00118136
0.00116574
0.0011507
0.00113629
0.0011225
0.00110927
0.00109641
0.001084
0.00107163
0.00106283
0.00693767
0.00241419
0.00142421
0.00122013
0.00120714
0.00123416
0.00126373
0.00128872
0.00130941
0.00132703
0.00134276
0.00135735
0.00137125
0.0013848
0.0013984
0.00141228
0.00142655
0.00144126
0.00145642
0.00147197
0.00148785
0.00150397
0.00152025
0.0015366
0.00155294
0.00156918
0.00158519
0.00160083
0.00161597
0.00163064
0.00164506
0.00165966
0.00167491
0.00169083
0.00170716
0.00716357
0.00268679
0.00173634
0.00153885
0.00151448
0.00152611
0.00154206
0.00155539
0.00156691
0.00157724
0.0015865
0.00159441
0.00160048
0.0016042
0.00160516
0.00160315
0.00159814
0.00159032
0.00158
0.0015676
0.00155357
0.00153834
0.00152231
0.00150583
0.0014892
0.00147268
0.00145644
0.00144057
0.00142507
0.00140988
0.00139497
0.00138045
0.00136698
0.00135509
0.00134895
0.0082721
0.00345137
0.00236772
0.00207707
0.00198529
0.00195481
0.00194778
0.00195157
0.00196118
0.0019743
0.00198976
0.00200694
0.0020255
0.00204526
0.00206614
0.0020881
0.0021111
0.00213509
0.00216001
0.00218577
0.00221228
0.00223946
0.00226725
0.00229563
0.00232453
0.00235381
0.00238316
0.00241222
0.00244078
0.00246912
0.00249817
0.00252913
0.00256254
0.0025968
0.00262903
0.00655339
0.00201898
0.000790339
0.000370047
0.000198032
0.000117372
7.54506e-05
5.19696e-05
3.82135e-05
3.01403e-05
2.57931e-05
2.42184e-05
2.49541e-05
2.77483e-05
3.23901e-05
3.86156e-05
4.60779e-05
5.43662e-05
6.30518e-05
7.17495e-05
8.0146e-05
8.80238e-05
9.5259e-05
0.000101806
0.000107675
0.000112915
0.000117594
0.000121785
0.000125565
0.000129001
0.000132157
0.000135087
0.000137852
0.000140478
0.000143108
0.00657565
0.00201432
0.000835232
0.000479625
0.000382365
0.000381579
0.000416963
0.000462184
0.00050598
0.000544402
0.000576784
0.000603764
0.000626318
0.000645414
0.000661865
0.000676312
0.000689289
0.000701206
0.000712374
0.000723027
0.000733339
0.000743439
0.000753426
0.00076337
0.000773313
0.000783262
0.00079318
0.000803017
0.000812759
0.000822477
0.000832342
0.000842525
0.000853007
0.000863438
0.000872427
0.0674525
0.03082
0.0188344
0.0153181
0.0139168
0.0132323
0.0128831
0.0127133
0.0126459
0.0126376
0.0126644
0.0127109
0.0127661
0.0128211
0.0128689
0.012904
0.0129231
0.0129244
0.0129076
0.0128738
0.012825
0.0127633
0.0126915
0.0126118
0.0125268
0.0124383
0.0123478
0.0122566
0.0121653
0.0120748
0.0119858
0.0119019
0.0118221
0.0117673
0.0116711
0.00655768
0.00200434
0.000789252
0.00038754
0.000238671
0.000187539
0.00018205
0.000200158
0.000229867
0.000263721
0.000297252
0.000328149
0.000355551
0.000379401
0.000400015
0.00041788
0.000433489
0.000447289
0.000459659
0.000470903
0.000481263
0.000490927
0.000500039
0.000508706
0.000517008
0.000524996
0.000532699
0.000540124
0.000547301
0.000554282
0.000561148
0.000567988
0.000574827
0.000581578
0.000587677
0.00655233
0.00200376
0.000780689
0.000364191
0.000194367
0.000114816
7.33226e-05
4.97674e-05
3.54591e-05
2.62799e-05
2.01248e-05
1.58489e-05
1.27973e-05
1.05808e-05
8.96286e-06
7.79921e-06
7.00526e-06
6.53701e-06
6.37963e-06
6.53959e-06
7.03848e-06
7.90728e-06
9.18079e-06
1.08922e-05
1.30676e-05
1.57213e-05
1.88516e-05
2.24373e-05
2.64375e-05
3.07944e-05
3.54376e-05
4.02919e-05
4.52814e-05
5.03295e-05
5.53276e-05
0.00684481
0.0023169
0.00131024
0.00109859
0.00108697
0.00111955
0.00115529
0.00118542
0.00120971
0.00122969
0.0012468
0.00126211
0.00127639
0.00129015
0.00130376
0.00131747
0.00133145
0.00134579
0.00136054
0.00137573
0.00139135
0.0014074
0.00142386
0.00144073
0.00145797
0.00147549
0.00149314
0.0015107
0.00152809
0.00154543
0.0015632
0.00158199
0.00160199
0.00162241
0.00164043
0.00656272
0.00200878
0.000801965
0.000412358
0.0002786
0.000244387
0.000254911
0.000285523
0.000323085
0.000360667
0.000394979
0.00042499
0.000450694
0.000472605
0.00049136
0.000507573
0.000521774
0.000534397
0.000545779
0.000556181
0.000565801
0.000574783
0.000583229
0.000591214
0.000598794
0.000606008
0.000612878
0.000619421
0.000625653
0.000631613
0.000637377
0.000643054
0.000648745
0.000654469
0.000660098
0.0241488
0.0121336
0.00789778
0.00648195
0.0059085
0.00563523
0.00550144
0.00544023
0.00541926
0.00542109
0.00543543
0.0054552
0.00547513
0.00549104
0.00549986
0.00549964
0.00548946
0.00546933
0.00543998
0.00540263
0.00535872
0.00530975
0.00525718
0.00520233
0.00514632
0.00509008
0.0050343
0.00497938
0.00492544
0.00487252
0.00482068
0.00477106
0.00472408
0.00468748
0.00464503
0.073888
0.0346882
0.0212152
0.0169869
0.0153036
0.0144969
0.0140748
0.0138593
0.0137639
0.0137416
0.0137664
0.0138236
0.0139042
0.0140028
0.0141157
0.0142404
0.0143749
0.0145175
0.014667
0.0148222
0.0149819
0.0151454
0.0153119
0.015481
0.0156516
0.0158229
0.0159934
0.0161624
0.01633
0.0164983
0.0166703
0.0168482
0.0170297
0.017198
0.0173827
0.00655883
0.00200635
0.000791275
0.000389775
0.000241583
0.000191588
0.0001874
0.000206634
0.000237127
0.00027143
0.000305251
0.000336368
0.000363945
0.000387938
0.000408673
0.00042661
0.000442224
0.000455947
0.000468157
0.000479169
0.000489236
0.000498562
0.000507303
0.000515581
0.000523487
0.000531078
0.000538379
0.000545397
0.000552141
0.000558654
0.000565029
0.000571377
0.000577747
0.000584037
0.000589836
0.00655553
0.0020301
0.000797039
0.000375521
0.00020458
0.000127229
9.11919e-05
7.67101e-05
7.53721e-05
8.27543e-05
9.56341e-05
0.000111187
0.000127036
0.000141487
0.000153599
0.000163057
0.000169963
0.000174637
0.000177476
0.000178877
0.000179192
0.000178719
0.000177696
0.000176312
0.000174709
0.000172994
0.000171242
0.000169505
0.000167814
0.000166186
0.000164639
0.000163196
0.000161914
0.000160835
0.000160176
0.00655275
0.00201092
0.000785116
0.000366864
0.000196045
0.000116031
7.44321e-05
5.10635e-05
3.72555e-05
2.89757e-05
2.42623e-05
2.21606e-05
2.22319e-05
2.4287e-05
2.82172e-05
3.38809e-05
4.10403e-05
4.93508e-05
5.83808e-05
6.77127e-05
7.70048e-05
8.59643e-05
9.44069e-05
0.000102242
0.000109449
0.000116052
0.000122099
0.000127648
0.000132762
0.0001375
0.000141917
0.000146071
0.000150012
0.000153778
0.000157396
0.00725729
0.00266454
0.00167403
0.00146171
0.00143221
0.00144322
0.00146109
0.00147874
0.00149537
0.00151131
0.00152687
0.00154223
0.00155761
0.0015732
0.00158916
0.00160565
0.00162274
0.00164044
0.00165876
0.00167763
0.00169701
0.00171681
0.00173698
0.00175742
0.00177807
0.00179878
0.00181939
0.00183967
0.00185951
0.00187898
0.00189851
0.0019187
0.00194001
0.00196202
0.00198318
0.00716767
0.00266701
0.00171591
0.00151714
0.0014889
0.00149618
0.00150854
0.00152004
0.00153106
0.00154196
0.00155323
0.0015651
0.00157763
0.00159087
0.00160483
0.0016195
0.00163482
0.00165067
0.0016669
0.00168336
0.00169989
0.00171633
0.00173254
0.00174842
0.00176389
0.00177887
0.00179332
0.00180714
0.00182025
0.00183262
0.00184437
0.00185578
0.00186755
0.00187974
0.00189646
0.00655298
0.00200825
0.000783635
0.000366386
0.000196804
0.000118553
7.9556e-05
6.00635e-05
5.19091e-05
5.15136e-05
5.70971e-05
6.74346e-05
8.13364e-05
9.75431e-05
0.00011485
0.000132262
0.000149084
0.000164895
0.000179497
0.000192843
0.000204976
0.000215983
0.000225969
0.000235042
0.000243305
0.000250852
0.000257766
0.000264115
0.000269959
0.000275362
0.000280398
0.000285147
0.000289674
0.000294005
0.000297992
0.00821763