/*--------------------------------*- C++ -*----------------------------------*\
| =========                 |                                                 |
| \\      /  F ield         | OpenFOAM: The Open Source CFD Toolbox           |
|  \\    /   O peration     | Version:  2.4.x                                 |
|   \\  /    A nd           | Web:      www.OpenFOAM.org                      |
|    \\/     M anipulation  |                                                 |
\*---------------------------------------------------------------------------*/
FoamFile
{
    version     2.0;
    format      ascii;
    class       volScalarField;
    location    "9960/coolant";
    object      k;
}
// * * * * * * * * * * * * * * * * * * * * * * * * * * * * * * * * * * * * * //

dimensions      [0 2 -2 0 0 0 0];

internalField   nonuniform List<scalar> 
109760
(
0.000349476
0.000160207
8.82842e-05
5.54283e-05
3.83181e-05
2.863e-05
2.29878e-05
1.99223e-05
1.87923e-05
1.93275e-05
2.13937e-05
2.4859e-05
2.95288e-05
3.51395e-05
4.13911e-05
4.79958e-05
5.47125e-05
6.13612e-05
6.78197e-05
7.40131e-05
7.99024e-05
8.54738e-05
9.07315e-05
9.56913e-05
0.000100375
0.000104807
0.000109008
0.000112994
0.000116778
0.000120375
0.000123809
0.000127117
0.000130341
0.000133496
0.00013651
0.000350352
0.000161269
9.26173e-05
6.6123e-05
5.85937e-05
6.11358e-05
6.9049e-05
7.94103e-05
9.0436e-05
0.000101134
0.00011103
0.000119968
0.000127962
0.000135093
0.000141467
0.00014719
0.000152361
0.000157067
0.000161383
0.000165371
0.000169083
0.000172563
0.000175845
0.000178962
0.000181941
0.000184803
0.000187555
0.000190189
0.000192691
0.000195061
0.000197338
0.000199605
0.000201956
0.000204406
0.000206867
0.000405319
0.000235778
0.000189728
0.000175078
0.000170367
0.000169525
0.000170372
0.000171956
0.000173808
0.000175698
0.000177488
0.000179067
0.00018035
0.000181271
0.000181794
0.000181907
0.000181625
0.000180985
0.000180037
0.000178836
0.000177441
0.000175904
0.000174273
0.00017259
0.00017089
0.0001692
0.000167542
0.000165922
0.000164334
0.00016276
0.000161186
0.000159617
0.000158155
0.000156876
0.000156363
0.000354612
0.000175254
0.000129069
0.000122935
0.00012865
0.000137125
0.000145527
0.000153059
0.000159619
0.000165317
0.000170309
0.000174735
0.000178711
0.000182336
0.000185684
0.000188816
0.000191778
0.000194606
0.00019733
0.000199973
0.000202551
0.000205076
0.00020756
0.000210017
0.000212462
0.000214898
0.00021731
0.000219657
0.000221899
0.000224032
0.00022614
0.000228381
0.000230919
0.000233728
0.000236592
0.000392034
0.00021823
0.000172921
0.000159345
0.000155329
0.000154844
0.000155817
0.000157416
0.000159291
0.000161269
0.000163272
0.000165263
0.000167229
0.000169163
0.000171066
0.000172933
0.000174756
0.000176526
0.00017823
0.000179856
0.000181396
0.000182841
0.000184188
0.000185437
0.000186591
0.000187658
0.000188643
0.000189551
0.000190378
0.000191119
0.000191775
0.00019236
0.000192962
0.000193575
0.000194816
0.000350011
0.000160683
9.13643e-05
6.37928e-05
5.48688e-05
5.60256e-05
6.28727e-05
7.25916e-05
8.33347e-05
9.39897e-05
0.000103982
0.000113084
0.00012126
0.00012857
0.000135112
0.000140991
0.000146309
0.000151155
0.000155609
0.000159735
0.000163588
0.000167213
0.000170647
0.000173925
0.000177074
0.000180115
0.000183054
0.000185884
0.000188596
0.000191198
0.000193743
0.000196321
0.000199015
0.000201817
0.00020451
0.000349434
0.00015975
8.78443e-05
5.49888e-05
3.77625e-05
2.7735e-05
2.14136e-05
1.71737e-05
1.41866e-05
1.19971e-05
1.03393e-05
9.05008e-06
8.02473e-06
7.19384e-06
6.51003e-06
5.94029e-06
5.46143e-06
5.05725e-06
4.71693e-06
4.434e-06
4.20584e-06
4.03352e-06
3.92174e-06
3.87898e-06
3.9177e-06
4.05447e-06
4.30994e-06
4.70866e-06
5.27839e-06
6.0491e-06
7.0513e-06
8.3142e-06
9.86207e-06
1.17103e-05
1.38195e-05
0.000350881
0.000162609
9.7272e-05
7.55189e-05
7.28717e-05
7.91505e-05
8.91332e-05
0.000100065
0.000110621
0.000120264
0.000128846
0.000136421
0.000143113
0.000149057
0.000154373
0.000159167
0.000163523
0.00016751
0.000171183
0.000174583
0.000177743
0.000180689
0.000183442
0.000186019
0.000188437
0.000190712
0.000192854
0.000194869
0.000196755
0.000198514
0.000200165
0.000201753
0.000203359
0.000205044
0.00020697
0.000349444
0.000160035
8.80752e-05
5.5172e-05
3.7905e-05
2.78485e-05
2.15097e-05
1.72641e-05
1.42862e-05
1.21271e-05
1.05323e-05
9.35611e-06
8.51957e-06
7.98861e-06
7.76142e-06
7.85984e-06
8.32153e-06
9.19141e-06
1.0512e-05
1.23136e-05
1.4606e-05
1.73729e-05
2.05714e-05
2.41354e-05
2.79842e-05
3.20321e-05
3.61967e-05
4.04066e-05
4.46043e-05
4.8747e-05
5.28064e-05
5.67683e-05
6.06278e-05
6.43821e-05
6.79763e-05
0.000358584
0.000187145
0.000148213
0.000144791
0.000150203
0.000157225
0.000163962
0.000169949
0.000175098
0.000179405
0.00018285
0.000185417
0.000187087
0.000187874
0.000187837
0.000187069
0.000185689
0.000183824
0.000181595
0.000179111
0.000176466
0.000173735
0.000170973
0.000168225
0.000165527
0.00016291
0.000160403
0.000158028
0.000155788
0.00015364
0.000151496
0.00014923
0.000146787
0.000144173
0.000142026
0.000356567
0.000183631
0.000143666
0.000140213
0.000146098
0.000153602
0.000160651
0.000166775
0.000171946
0.00017624
0.000179665
0.000182208
0.00018386
0.000184639
0.000184598
0.00018383
0.000182451
0.000180588
0.000178365
0.000175894
0.000173266
0.000170559
0.000167831
0.000165129
0.000162493
0.000159944
0.000157487
0.000155099
0.000152735
0.000150349
0.000147957
0.000145685
0.000143849
0.000142755
0.000142988
0.000358756
0.000193422
0.000159184
0.000157149
0.000162086
0.000168008
0.000173515
0.00017831
0.000182486
0.000186088
0.000189083
0.00019141
0.000193023
0.000193904
0.000194075
0.000193597
0.000192553
0.000191043
0.000189169
0.000187025
0.000184698
0.000182259
0.000179763
0.000177255
0.000174772
0.000172345
0.000170003
0.000167768
0.000165649
0.000163622
0.000161629
0.000159568
0.000157399
0.000155054
0.000153218
0.000358226
0.000189506
0.000152847
0.000149911
0.000154915
0.000161222
0.000167081
0.000172157
0.000176559
0.000180337
0.00018347
0.000185915
0.000187634
0.000188615
0.000188882
0.00018849
0.000187525
0.000186086
0.000184279
0.000182201
0.000179941
0.00017757
0.000175148
0.000172724
0.000170336
0.000168013
0.000165767
0.000163593
0.000161461
0.000159329
0.000157181
0.000155065
0.000153191
0.000151762
0.000151521
0.000486599
0.000280434
0.000212152
0.00018853
0.000179334
0.000175562
0.000174237
0.000174134
0.000174708
0.00017567
0.000176864
0.000178207
0.000179648
0.000181157
0.000182713
0.000184299
0.000185897
0.000187489
0.000189057
0.000190585
0.000192059
0.000193466
0.0001948
0.000196055
0.000197232
0.000198332
0.000199358
0.000200311
0.000201187
0.000201983
0.000202705
0.000203373
0.000204053
0.000204764
0.000205804
0.000350338
0.000162002
9.45676e-05
6.98429e-05
6.43494e-05
6.87325e-05
7.79647e-05
8.90371e-05
0.000100232
0.000110702
0.000120121
0.000128433
0.000135703
0.000142028
0.000147502
0.000152209
0.000156218
0.000159596
0.000162409
0.000164722
0.000166597
0.0001681
0.00016929
0.000170226
0.000170961
0.000171543
0.00017201
0.000172393
0.000172712
0.000172973
0.000173184
0.000173357
0.000173547
0.000173804
0.000174439
0.000351184
0.000163816
0.000101172
8.25773e-05
8.25541e-05
9.04346e-05
0.000101051
0.000111941
0.000122063
0.000131094
0.000139025
0.000145972
0.000152076
0.000157471
0.000162272
0.000166565
0.000170419
0.000173883
0.000176998
0.000179795
0.000182304
0.000184552
0.000186562
0.000188361
0.000189976
0.000191432
0.000192753
0.000193958
0.000195056
0.000196052
0.000196956
0.000197787
0.000198616
0.000199491
0.000200777
0.00035378
0.000170848
0.000118419
0.000109379
0.000115232
0.000125223
0.00013545
0.000144698
0.000152754
0.000159696
0.000165714
0.000170977
0.000175631
0.000179801
0.000183588
0.000187073
0.000190318
0.000193369
0.000196257
0.000199006
0.000201631
0.000204141
0.000206545
0.000208848
0.000211057
0.000213177
0.000215208
0.000217142
0.000218966
0.000220673
0.000222284
0.000223858
0.000225503
0.000227285
0.000229409
0.000356102
0.00018127
0.000138739
0.000133145
0.000137677
0.000144423
0.000151156
0.000157276
0.00016268
0.000167425
0.000171605
0.000175302
0.000178589
0.000181517
0.000184118
0.000186407
0.000188396
0.000190093
0.00019151
0.000192666
0.000193582
0.000194284
0.000194801
0.000195162
0.000195398
0.000195537
0.000195604
0.000195613
0.000195571
0.000195467
0.000195296
0.000195061
0.000194864
0.000194735
0.00019549
0.000462826
0.000247829
0.000185878
0.000166339
0.000159076
0.000156244
0.000155372
0.000155515
0.000156215
0.000157232
0.000158433
0.000159739
0.000161108
0.000162516
0.000163945
0.000165377
0.000166798
0.000168191
0.000169543
0.00017084
0.000172072
0.00017323
0.000174311
0.000175315
0.000176245
0.000177109
0.000177911
0.000178652
0.000179324
0.000179925
0.000180464
0.000180975
0.000181523
0.000182113
0.000182963
0.00035031
0.000161263
9.3973e-05
6.94704e-05
6.40385e-05
6.82457e-05
7.71357e-05
8.7831e-05
9.8728e-05
0.000109027
0.000118406
0.0001268
0.000134265
0.000140905
0.000146839
0.000152175
0.000157014
0.000161441
0.000165528
0.000169335
0.00017291
0.000176293
0.000179518
0.000182614
0.000185608
0.000188516
0.000191339
0.000194065
0.000196679
0.000199188
0.00020165
0.000204167
0.000206834
0.000209633
0.000212322
0.000396065
0.000222482
0.000177521
0.000164509
0.000160915
0.000160626
0.000161643
0.000163187
0.000164983
0.000166884
0.000168822
0.000170765
0.000172698
0.000174617
0.000176525
0.000178425
0.000180316
0.000182193
0.00018405
0.000185877
0.000187665
0.000189405
0.00019109
0.000192714
0.000194275
0.000195773
0.000197205
0.000198564
0.00019984
0.00020102
0.000202114
0.000203154
0.000204251
0.000205395
0.000207191
0.0003507
0.000164023
0.000100046
8.00742e-05
7.94894e-05
8.76089e-05
9.89447e-05
0.000110678
0.000121458
0.000130701
0.000138145
0.00014373
0.000147591
0.000149914
0.000150921
0.000150856
0.000149957
0.000148441
0.000146496
0.000144272
0.000141885
0.000139419
0.000136936
0.000134479
0.000132082
0.000129773
0.000127576
0.000125505
0.000123556
0.000121688
0.000119822
0.000117859
0.000115758
0.000113574
0.000111759
0.000350735
0.000164082
0.000100153
8.02775e-05
7.98044e-05
8.79984e-05
9.93554e-05
0.000111072
0.000121819
0.000131025
0.000138441
0.000144005
0.00014785
0.00015016
0.000151157
0.000151082
0.000150175
0.000148651
0.000146697
0.000144465
0.000142068
0.000139595
0.000137109
0.000134659
0.000132277
0.000129983
0.000127774
0.000125628
0.000123513
0.000121409
0.000119357
0.000117496
0.000116088
0.000115356
0.000115512
0.000356044
0.000192853
0.000159651
0.00015625
0.000159493
0.000164152
0.000168874
0.000173231
0.000177067
0.000180265
0.000182786
0.000184593
0.000185626
0.000185867
0.000185346
0.000184139
0.000182352
0.000180101
0.000177504
0.000174673
0.000171701
0.00016866
0.000165609
0.0001626
0.000159672
0.000156846
0.000154112
0.000151425
0.00014872
0.000145959
0.000143216
0.000140753
0.000139051
0.000138536
0.000139486
0.000356299
0.000193226
0.00015943
0.000154678
0.000156746
0.000160606
0.000164814
0.00016884
0.000172461
0.000175518
0.00017796
0.000179718
0.000180727
0.000180963
0.000180455
0.000179277
0.000177531
0.00017533
0.000172795
0.00017003
0.000167125
0.000164148
0.00016115
0.000158174
0.000155259
0.000152444
0.000149766
0.000147249
0.000144886
0.000142602
0.000140259
0.00013768
0.000134795
0.000131728
0.000129147
0.000349464
0.000160192
8.82501e-05
5.53485e-05
3.81306e-05
2.82316e-05
2.22209e-05
1.85633e-05
1.65547e-05
1.58936e-05
1.64773e-05
1.82806e-05
2.12714e-05
2.53566e-05
3.03629e-05
3.60551e-05
4.21771e-05
4.8494e-05
5.48182e-05
6.10164e-05
6.70038e-05
7.27331e-05
7.81843e-05
8.33559e-05
8.82576e-05
9.29055e-05
9.7317e-05
0.000101507
0.000105489
0.000109278
0.000112894
0.000116373
0.000119749
0.00012304
0.000126187
0.000449176
0.000260823
0.000203014
0.00018365
0.000176385
0.000173777
0.000173319
0.000173901
0.000174934
0.000176102
0.000177184
0.000178014
0.000178458
0.000178436
0.00017792
0.000176926
0.000175508
0.000173733
0.000171681
0.000169426
0.000167038
0.000164572
0.000162076
0.000159586
0.000157134
0.000154749
0.000152455
0.000150268
0.000148184
0.000146167
0.000144146
0.000142047
0.000139834
0.000137682
0.000135643
0.000350383
0.000162144
9.49956e-05
7.05822e-05
6.53399e-05
6.98773e-05
7.91941e-05
9.03098e-05
0.000101516
0.000111964
0.000121328
0.000129551
0.000136695
0.00014285
0.000148102
0.000152531
0.000156207
0.000159214
0.00016163
0.00016353
0.000164993
0.00016609
0.000166891
0.000167459
0.000167851
0.000168113
0.000168285
0.000168395
0.00016846
0.000168485
0.000168473
0.000168437
0.000168434
0.000168518
0.000169012
0.000836219
0.000518915
0.000379726
0.000331674
0.000311523
0.000301429
0.000296082
0.000293266
0.000291906
0.000291409
0.000291416
0.000291689
0.000292044
0.000292334
0.00029245
0.000292318
0.000291897
0.000291177
0.000290169
0.000288904
0.00028742
0.000285761
0.000283972
0.000282093
0.00028016
0.000278206
0.000276257
0.000274333
0.000272449
0.000270613
0.000268819
0.000267083
0.000265338
0.000263894
0.000261742
0.000899897
0.000525683
0.000377697
0.000327011
0.000305811
0.000295401
0.000289912
0.000287136
0.000285947
0.000285719
0.000286115
0.000286947
0.000288098
0.000289493
0.00029108
0.000292823
0.000294692
0.000296663
0.000298715
0.000300833
0.000303001
0.000305208
0.000307447
0.000309712
0.000311996
0.000314287
0.000316567
0.000318816
0.000321028
0.000323225
0.000325452
0.000327766
0.000330171
0.000332455
0.000335064
0.000371236
0.000207289
0.000171432
0.000165901
0.000167746
0.000171434
0.000175439
0.000179309
0.000182857
0.00018604
0.000188834
0.000191204
0.000193116
0.000194536
0.000195452
0.000195873
0.000195829
0.00019537
0.000194559
0.00019346
0.000192142
0.000190662
0.000189075
0.000187426
0.000185753
0.000184088
0.000182454
0.00018086
0.000179301
0.000177754
0.000176198
0.000174626
0.000173148
0.000171802
0.000171442
0.000350595
0.000161995
9.58701e-05
7.29806e-05
6.91843e-05
7.46352e-05
8.42351e-05
9.51765e-05
0.000105991
0.000115999
0.000124972
0.000132898
0.000139896
0.000146103
0.000151646
0.000156636
0.000161171
0.000165329
0.000169172
0.000172751
0.000176102
0.000179256
0.000182236
0.00018506
0.000187746
0.000190305
0.000192744
0.000195062
0.000197252
0.000199317
0.000201283
0.000203209
0.000205182
0.000207249
0.000209449
0.000353894
0.000188834
0.000154788
0.000152035
0.000156332
0.000161958
0.00016746
0.000172429
0.000176745
0.000180297
0.000183084
0.000185078
0.000186237
0.000186556
0.000186078
0.00018489
0.000183109
0.000180858
0.000178261
0.00017543
0.000172458
0.000169417
0.000166366
0.000163358
0.000160433
0.00015761
0.000154879
0.000152194
0.000149491
0.000146735
0.000144009
0.000141582
0.000139938
0.000139485
0.000140469
0.000353626
0.000188804
0.00015474
0.000151543
0.000155389
0.000160684
0.000165956
0.000170766
0.00017497
0.000178445
0.000181182
0.000183142
0.000184281
0.000184591
0.000184113
0.000182934
0.000181167
0.000178934
0.000176361
0.000173556
0.000170611
0.000167596
0.000164559
0.000161549
0.000158603
0.000155762
0.000153061
0.000150526
0.000148145
0.000145841
0.00014347
0.000140856
0.000137934
0.000134837
0.000132277
0.000349445
0.000160103
8.81325e-05
5.52177e-05
3.79418e-05
2.78784e-05
2.15333e-05
1.72809e-05
1.42936e-05
1.21196e-05
1.05e-05
9.28252e-06
8.37879e-06
7.7422e-06
7.35591e-06
7.22578e-06
7.37518e-06
7.83969e-06
8.66036e-06
9.87581e-06
1.15141e-05
1.3586e-05
1.60807e-05
1.89655e-05
2.21891e-05
2.56873e-05
2.93904e-05
3.32306e-05
3.71474e-05
4.10911e-05
4.50245e-05
4.89234e-05
5.2774e-05
5.65654e-05
6.0254e-05
0.000378352
0.000216812
0.00018153
0.000176014
0.000177806
0.000181407
0.000185228
0.000188879
0.000192202
0.000195179
0.0001978
0.000200039
0.000201851
0.000203198
0.000204062
0.000204445
0.000204373
0.000203889
0.000203048
0.000201914
0.00020055
0.000199016
0.000197364
0.00019564
0.000193882
0.000192122
0.000190387
0.0001887
0.000187077
0.000185519
0.000184016
0.000182523
0.000181039
0.000179436
0.000178309
0.000356694
0.000180259
0.00013671
0.000131531
0.000136891
0.000144393
0.000151682
0.000158194
0.000163882
0.000168854
0.000173236
0.000177141
0.000180661
0.000183865
0.000186801
0.000189503
0.000191986
0.000194262
0.000196333
0.000198208
0.000199892
0.000201395
0.000202728
0.000203907
0.000204949
0.000205873
0.000206699
0.000207438
0.000208095
0.000208665
0.000209148
0.000209554
0.000209961
0.000210407
0.000211449
0.000380185
0.000208481
0.000165085
0.000152994
0.000150402
0.000151136
0.000153105
0.000155515
0.000158046
0.000160561
0.000163009
0.000165379
0.000167667
0.000169888
0.000172061
0.000174202
0.000176325
0.000178437
0.000180543
0.000182643
0.000184736
0.000186819
0.000188887
0.00019094
0.000192976
0.000194988
0.000196961
0.000198868
0.000200683
0.0002024
0.000204069
0.000205791
0.000207709
0.000209822
0.000212285
0.000863621
0.000531878
0.000387827
0.000338093
0.000316947
0.000306193
0.000300474
0.000297485
0.000296042
0.000295496
0.000295443
0.00029561
0.000295786
0.000295813
0.000295584
0.000295034
0.000294139
0.000292905
0.000291364
0.000289561
0.000287547
0.000285375
0.000283093
0.000280745
0.000278369
0.000275998
0.000273657
0.000271365
0.000269132
0.000266961
0.000264838
0.00026278
0.000260713
0.000259013
0.000256566
0.000844881
0.000516898
0.000373778
0.00032535
0.000305084
0.000294916
0.000289618
0.00028694
0.000285738
0.000285391
0.000285517
0.00028584
0.000286155
0.000286305
0.000286183
0.000285726
0.000284909
0.000283745
0.000282268
0.000280527
0.000278575
0.000276468
0.000274257
0.000271985
0.00026969
0.000267402
0.00026514
0.000262917
0.000260736
0.000258605
0.000256531
0.000254575
0.000252714
0.000251347
0.000249323
0.000356969
0.00018492
0.000146011
0.000142605
0.000148081
0.000155078
0.000161739
0.000167706
0.000172985
0.000177671
0.000181849
0.000185602
0.000189018
0.000192166
0.000195099
0.00019785
0.000200443
0.000202892
0.000205206
0.00020739
0.000209444
0.000211371
0.000213175
0.000214862
0.000216444
0.000217935
0.000219344
0.000220668
0.000221893
0.000223
0.000224005
0.00022496
0.000226005
0.000227138
0.000229004
0.00034983
0.000160485
9.01135e-05
6.06994e-05
4.92787e-05
4.77388e-05
5.22978e-05
6.05002e-05
7.05196e-05
8.10581e-05
9.13082e-05
0.000100854
0.000109541
0.000117365
0.000124391
0.000130713
0.000136427
0.000141627
0.000146394
0.000150795
0.000154885
0.000158712
0.000162315
0.000165726
0.000168972
0.000172075
0.000175044
0.000177879
0.000180581
0.00018316
0.000185654
0.000188131
0.00019066
0.00019325
0.000195806
0.00035029
0.000161281
9.40484e-05
6.96781e-05
6.44436e-05
6.88501e-05
7.7879e-05
8.8632e-05
9.95123e-05
0.000109727
0.00011898
0.000127224
0.00013453
0.000141018
0.000146809
0.000152017
0.000156745
0.000161076
0.00016508
0.000168812
0.000172315
0.000175623
0.000178764
0.00018176
0.00018463
0.000187387
0.000190033
0.000192564
0.000194972
0.000197263
0.000199476
0.000201683
0.000203967
0.000206349
0.000208752
0.000352628
0.000170004
0.000119331
0.000111308
0.000117239
0.000126775
0.000136361
0.000144967
0.000152444
0.000158906
0.000164517
0.000169433
0.000173791
0.000177708
0.000181279
0.000184584
0.00018768
0.000190615
0.000193424
0.000196131
0.000198754
0.000201307
0.000203797
0.000206234
0.000208625
0.000210968
0.000213253
0.000215458
0.00021756
0.000219561
0.00022151
0.000223511
0.000225684
0.000228061
0.00023051
0.000349923
0.000161201
9.10788e-05
6.2092e-05
5.13525e-05
5.0637e-05
5.59616e-05
6.47307e-05
7.50862e-05
8.57731e-05
9.60435e-05
0.000105522
0.000114076
0.000121701
0.000128447
0.000134381
0.000139569
0.000144076
0.000147965
0.0001513
0.000154142
0.000156551
0.000158589
0.000160312
0.000161778
0.000163035
0.000164128
0.000165092
0.000165953
0.000166726
0.000167426
0.000168069
0.000168703
0.000169371
0.000170316
0.000351971
0.000170004
0.00011721
0.000107946
0.000114149
0.000124859
0.000135873
0.000145759
0.000154148
0.000160992
0.000166273
0.000170106
0.000172596
0.000173862
0.000174051
0.000173339
0.00017191
0.000169943
0.000167596
0.000165002
0.000162265
0.000159463
0.000156654
0.000153881
0.000151177
0.000148573
0.000146096
0.000143766
0.00014158
0.000139484
0.000137378
0.000135124
0.000132661
0.000130039
0.000127842
0.000352106
0.000170511
0.00011842
0.000109406
0.000115449
0.000125844
0.000136559
0.000146212
0.000154428
0.000161153
0.00016639
0.000170198
0.000172677
0.000173936
0.000174122
0.000173406
0.00017197
0.000169994
0.000167636
0.00016503
0.000162281
0.000159469
0.000156656
0.000153891
0.000151209
0.000148628
0.000146143
0.000143721
0.000141314
0.000138895
0.000136516
0.000134365
0.000132795
0.000132105
0.000132593
0.000349455
0.000160209
8.82333e-05
5.53016e-05
3.80117e-05
2.79544e-05
2.16476e-05
1.7484e-05
1.46673e-05
1.27939e-05
1.16736e-05
1.12431e-05
1.15166e-05
1.25479e-05
1.43932e-05
1.70779e-05
2.05723e-05
2.47851e-05
2.95739e-05
3.47685e-05
4.01968e-05
4.57066e-05
5.11774e-05
5.6524e-05
6.16947e-05
6.66609e-05
7.14093e-05
7.59385e-05
8.02533e-05
8.43616e-05
8.82767e-05
9.20191e-05
9.56137e-05
9.90789e-05
0.000102395
0.00034959
0.000160278
8.86941e-05
5.68115e-05
4.15246e-05
3.482e-05
3.35444e-05
3.61723e-05
4.16549e-05
4.90631e-05
5.75596e-05
6.6463e-05
7.5291e-05
8.37485e-05
9.16849e-05
9.90411e-05
0.000105818
0.000112049
0.000117776
0.000123058
0.000127948
0.000132494
0.000136739
0.000140722
0.000144478
0.000148033
0.000151409
0.000154614
0.000157656
0.00016055
0.000163329
0.000166047
0.00016876
0.000171481
0.000174128
0.000351454
0.000165466
0.000103659
8.65651e-05
8.86494e-05
9.85879e-05
0.000110763
0.000122631
0.000133257
0.000142431
0.000150211
0.000156722
0.000162087
0.00016641
0.000169786
0.000172305
0.000174063
0.000175161
0.000175704
0.000175799
0.000175544
0.000175028
0.000174326
0.000173501
0.000172604
0.000171674
0.000170742
0.000169832
0.000168961
0.000168138
0.000167361
0.000166613
0.000165897
0.000165148
0.000164727
0.000354719
0.000174169
0.00012409
0.00011672
0.000123644
0.000134189
0.000144563
0.00015362
0.000161208
0.000167503
0.000172672
0.00017684
0.000180074
0.000182449
0.000184026
0.000184877
0.000185089
0.000184761
0.000183998
0.000182899
0.000181556
0.000180047
0.000178437
0.000176777
0.00017511
0.000173467
0.00017187
0.000170327
0.00016883
0.000167357
0.000165886
0.000164416
0.000163037
0.000161827
0.000161399
0.000368443
0.000200468
0.000161349
0.00015287
0.000152618
0.000155021
0.000158321
0.000161843
0.000165287
0.000168528
0.000171528
0.000174283
0.000176799
0.000179083
0.000181134
0.000182944
0.000184507
0.000185821
0.000186889
0.000187723
0.00018834
0.000188762
0.000189016
0.000189128
0.000189127
0.000189041
0.000188891
0.000188692
0.000188443
0.000188135
0.000187759
0.000187322
0.000186938
0.000186637
0.000187279
0.000352195
0.000166783
0.000109154
9.58639e-05
9.9721e-05
0.000109569
0.00012067
0.000131187
0.000140557
0.000148707
0.000155762
0.000161908
0.000167313
0.000172117
0.000176423
0.000180315
0.000183854
0.000187087
0.000190048
0.000192762
0.000195253
0.000197539
0.000199639
0.000201571
0.000203357
0.000205017
0.000206569
0.000208016
0.000209354
0.000210575
0.000211693
0.000212759
0.000213873
0.000215084
0.000216616
0.000349485
0.000160426
8.84342e-05
5.5572e-05
3.85057e-05
2.89202e-05
2.34556e-05
2.06557e-05
1.98802e-05
2.08472e-05
2.34029e-05
2.73966e-05
3.26186e-05
3.87892e-05
4.55853e-05
5.26877e-05
5.98254e-05
6.67985e-05
7.34796e-05
7.98003e-05
8.57333e-05
9.12775e-05
9.64471e-05
0.000101264
0.000105754
0.000109945
0.000113861
0.000117528
0.000120962
0.000124183
0.000127215
0.000130091
0.000132855
0.000135541
0.000138148
0.000349584
0.000160677
8.89536e-05
5.67457e-05
4.09582e-05
3.35383e-05
3.13296e-05
3.28975e-05
3.73543e-05
4.39284e-05
5.18713e-05
6.05035e-05
6.92819e-05
7.78255e-05
8.58999e-05
9.3386e-05
0.000100234
0.000106436
0.000112012
0.000116988
0.000121409
0.00012533
0.000128804
0.000131887
0.000134629
0.000137081
0.000139291
0.000141297
0.00014313
0.000144818
0.000146383
0.000147853
0.00014927
0.00015068
0.000152192
0.000356274
0.000177836
0.000130749
0.000125309
0.000132846
0.000143138
0.000152892
0.000161298
0.000168345
0.000174207
0.000179043
0.000182965
0.000186033
0.00018829
0.000189792
0.000190602
0.000190799
0.000190473
0.000189718
0.000188628
0.000187289
0.000185777
0.000184156
0.000182475
0.000180776
0.000179091
0.000177445
0.000175859
0.000174347
0.000172911
0.000171536
0.000170179
0.000168831
0.000167381
0.000166347
0.000354851
0.000176463
0.000131426
0.000126412
0.000132827
0.000141501
0.00014977
0.000157042
0.000163336
0.000168793
0.000173575
0.000177804
0.000181595
0.000185041
0.000188222
0.000191203
0.000194029
0.000196734
0.000199342
0.000201869
0.000204323
0.00020671
0.000209034
0.000211296
0.000213501
0.000215649
0.000217731
0.000219731
0.000221626
0.000223407
0.000225106
0.000226805
0.000228632
0.000230653
0.000232969
0.000359665
0.000186571
0.000145902
0.000142148
0.000147924
0.000155393
0.000162414
0.000168503
0.000173712
0.000178164
0.000181952
0.000185124
0.000187697
0.00018968
0.000191086
0.00019194
0.000192285
0.000192181
0.000191695
0.0001909
0.000189866
0.000188657
0.000187329
0.000185927
0.000184494
0.00018306
0.00018165
0.000180273
0.000178927
0.00017759
0.000176242
0.000174876
0.000173589
0.000172433
0.000172171
0.000361164
0.000189864
0.000150872
0.000144563
0.000146517
0.000150529
0.000154896
0.000159096
0.000162985
0.000166552
0.00016983
0.000172866
0.000175702
0.000178379
0.000180933
0.000183398
0.000185797
0.000188149
0.00019047
0.000192767
0.000195048
0.000197315
0.000199575
0.000201836
0.000204106
0.000206381
0.000208637
0.000210833
0.00021293
0.000214941
0.000216967
0.000219181
0.000221733
0.000224569
0.00022736
0.000349511
0.000161099
8.90266e-05
5.59478e-05
3.85468e-05
2.84411e-05
2.21599e-05
1.81131e-05
1.55311e-05
1.40442e-05
1.3497e-05
1.3851e-05
1.51219e-05
1.73282e-05
2.04491e-05
2.43987e-05
2.90228e-05
3.41176e-05
3.94611e-05
4.48468e-05
5.01041e-05
5.51102e-05
5.97901e-05
6.41091e-05
6.80631e-05
7.16681e-05
7.4953e-05
7.79522e-05
8.07013e-05
8.32333e-05
8.55782e-05
8.77618e-05
8.98143e-05
9.17518e-05
9.36605e-05
0.000350583
0.000161741
9.56873e-05
7.31161e-05
6.9848e-05
7.5834e-05
8.58071e-05
9.69247e-05
0.000107776
0.000117765
0.000126716
0.000134653
0.000141678
0.000147917
0.000153493
0.000158513
0.000163073
0.000167256
0.00017113
0.000174749
0.000178158
0.000181394
0.000184488
0.000187467
0.000190356
0.000193171
0.00019591
0.000198555
0.000201088
0.000203514
0.000205892
0.000208332
0.000210934
0.000213679
0.000216341
0.000846855
0.00050238
0.00036178
0.00031522
0.00029569
0.000285913
0.00028086
0.000278387
0.000277402
0.000277281
0.000277673
0.000278353
0.000279158
0.000279959
0.000280653
0.000281165
0.000281442
0.00028146
0.000281216
0.000280726
0.000280015
0.000279117
0.000278068
0.000276904
0.000275657
0.000274358
0.000273028
0.000271684
0.000270335
0.000268992
0.000267663
0.000266397
0.000265182
0.000264339
0.00026289
0.000349776
0.000160433
8.97771e-05
5.97955e-05
4.75318e-05
4.49389e-05
4.83892e-05
5.55976e-05
6.48497e-05
7.48818e-05
8.48631e-05
9.43243e-05
0.000103056
0.000111003
0.000118192
0.000124695
0.000130594
0.000135972
0.000140903
0.000145451
0.000149671
0.000153607
0.000157297
0.000160774
0.000164065
0.000167191
0.000170165
0.00017299
0.000175668
0.00017821
0.000180649
0.000183041
0.000185452
0.000187904
0.000190342
0.000349448
0.000160143
8.81908e-05
5.52728e-05
3.79885e-05
2.7917e-05
2.15642e-05
1.73029e-05
1.4303e-05
1.21095e-05
1.04583e-05
9.18959e-06
8.20427e-06
7.44121e-06
6.86464e-06
6.45738e-06
6.217e-06
6.15358e-06
6.28812e-06
6.65082e-06
7.27857e-06
8.21167e-06
9.4895e-06
1.11459e-05
1.32042e-05
1.56734e-05
1.8545e-05
2.17918e-05
2.53697e-05
2.92214e-05
3.32816e-05
3.74844e-05
4.17675e-05
4.60731e-05
5.03222e-05
0.000353323
0.000172795
0.000125285
0.000118935
0.000125096
0.000134122
0.000142974
0.000150851
0.000157675
0.000163579
0.00016873
0.000173281
0.000177355
0.000181055
0.000184461
0.000187639
0.000190638
0.000193499
0.000196253
0.000198924
0.00020153
0.000204082
0.000206596
0.000209083
0.000211557
0.000214019
0.000216453
0.00021882
0.000221085
0.000223257
0.000225426
0.000227748
0.000230371
0.000233262
0.000236062
0.000350065
0.000160964
9.15378e-05
6.37264e-05
5.44409e-05
5.51395e-05
6.1507e-05
7.08024e-05
8.12033e-05
9.16107e-05
0.000101431
0.000110423
0.000118531
0.000125805
0.000132331
0.000138205
0.000143519
0.000148355
0.00015278
0.00015685
0.00016061
0.000164098
0.000167344
0.000170373
0.000173208
0.00017587
0.000178373
0.000180726
0.000182932
0.000184999
0.000186948
0.000188826
0.000190703
0.000192629
0.000194682
0.000492469
0.0002947
0.000225854
0.000201296
0.000191509
0.000187448
0.00018606
0.000186028
0.000186683
0.000187671
0.000188784
0.000189874
0.000190828
0.000191558
0.000192005
0.000192136
0.000191942
0.000191441
0.000190664
0.000189652
0.000188453
0.000187111
0.000185668
0.000184163
0.000182628
0.000181089
0.000179567
0.00017807
0.000176597
0.000175139
0.00017369
0.000172267
0.000170928
0.000169818
0.000168994
0.000883244
0.000533522
0.000384411
0.000331467
0.000309191
0.000298227
0.00029241
0.000289418
0.000288089
0.000287777
0.000288124
0.000288921
0.000290043
0.000291412
0.000292976
0.000294699
0.000296552
0.000298511
0.000300557
0.000302672
0.000304843
0.000307056
0.000309303
0.000311574
0.000313861
0.000316149
0.00031842
0.00032066
0.000322868
0.000325069
0.000327306
0.00032962
0.000331997
0.000334232
0.000336697
0.000349885
0.000160642
9.0074e-05
6.02292e-05
4.8201e-05
4.5938e-05
4.97455e-05
5.72772e-05
6.67974e-05
7.70438e-05
8.72097e-05
9.68356e-05
0.000105714
0.000113789
0.000121089
0.000127677
0.000133632
0.000139034
0.000143958
0.000148474
0.00015264
0.000156505
0.000160112
0.000163496
0.000166691
0.000169721
0.000172601
0.000175336
0.00017792
0.000180356
0.000182676
0.000184942
0.000187232
0.000189572
0.000191925
0.000349643
0.00016181
8.96878e-05
5.6804e-05
4.00025e-05
3.11384e-05
2.70243e-05
2.63287e-05
2.83755e-05
3.26062e-05
3.83795e-05
4.49928e-05
5.17927e-05
5.82724e-05
6.41072e-05
6.91355e-05
7.33162e-05
7.66854e-05
7.93223e-05
8.13256e-05
8.27984e-05
8.38388e-05
8.45352e-05
8.49647e-05
8.51924e-05
8.52724e-05
8.5248e-05
8.51519e-05
8.50063e-05
8.48243e-05
8.46142e-05
8.43862e-05
8.41701e-05
8.40028e-05
8.40258e-05