/*--------------------------------*- C++ -*----------------------------------*\
| =========                 |                                                 |
| \\      /  F ield         | OpenFOAM: The Open Source CFD Toolbox           |
|  \\    /   O peration     | Version:  2.4.x                                 |
|   \\  /    A nd           | Web:      www.OpenFOAM.org                      |
|    \\/     M anipulation  |                                                 |
\*---------------------------------------------------------------------------*/
FoamFile
{
    version     2.0;
    format      ascii;
    class       volScalarField;
    location    "9960/coolant";
    object      mut;
}
// * * * * * * * * * * * * * * * * * * * * * * * * * * * * * * * * * * * * * //

dimensions      [1 -1 -1 0 0 0 0];

internalField   nonuniform List<scalar> 
109760
(
0.00166908
0.0011465
0.000893008
0.000753796
0.000672562
0.000627867
0.00061362
0.000631602
0.000686609
0.000781877
0.000917095
0.00108982
0.00129627
0.00153059
0.00178527
0.00205254
0.00232557
0.00259896
0.00286872
0.00313199
0.00338692
0.00363241
0.00386796
0.00409351
0.00430933
0.00451584
0.00471342
0.00490222
0.00508213
0.00525315
0.00541599
0.00557263
0.00572612
0.00587869
0.00603017
0.00167389
0.0011589
0.000950125
0.000918914
0.00102159
0.00121318
0.0014501
0.00170716
0.0019698
0.00222802
0.00247518
0.00270796
0.00292505
0.0031263
0.00331225
0.0034838
0.00364206
0.00378816
0.00392325
0.00404843
0.00416467
0.00427285
0.00437381
0.00446841
0.00455751
0.0046419
0.00472196
0.00479749
0.00486788
0.00493277
0.00499327
0.00505244
0.00511473
0.00518217
0.00525541
0.00110524
0.0007382
0.000686753
0.000692482
0.000710173
0.000731501
0.000752979
0.000773031
0.000790992
0.000806743
0.000820253
0.000831457
0.000840308
0.000846789
0.000850965
0.00085298
0.000853053
0.000851456
0.000848487
0.000844441
0.000839592
0.000834181
0.000828409
0.000822448
0.000816442
0.000810507
0.000804723
0.000799109
0.000793605
0.000788059
0.000782342
0.000776379
0.000770865
0.00076564
0.000766477
0.00162523
0.00114829
0.00106802
0.00114252
0.0012707
0.00141234
0.00155046
0.00167793
0.00179251
0.00189438
0.00198476
0.002065
0.00213651
0.00220058
0.00225835
0.00231075
0.00235861
0.00240264
0.00244344
0.0024815
0.00251723
0.00255094
0.00258296
0.00261365
0.00264339
0.00267243
0.00270066
0.00272751
0.00275221
0.0027745
0.00279561
0.00281838
0.00284625
0.00287998
0.00291745
0.00102583
0.000661068
0.000607604
0.000612266
0.000629473
0.000649975
0.000670389
0.000689312
0.0007065
0.000722018
0.000736036
0.000748747
0.000760337
0.000770978
0.000780815
0.00078996
0.000798487
0.000806439
0.000813843
0.000820717
0.000827076
0.000832934
0.000838314
0.000843246
0.000847772
0.000851942
0.000855802
0.00085937
0.000862627
0.000865513
0.000868007
0.000870124
0.000872401
0.0008746
0.000880805
0.00167174
0.00115319
0.000934255
0.000883276
0.00095964
0.00112837
0.00135023
0.00159899
0.00185851
0.00211736
0.00236787
0.00260557
0.00282832
0.00303554
0.00322754
0.00340515
0.00356942
0.00372151
0.00386259
0.00399374
0.00411596
0.00423018
0.00433726
0.0044381
0.00453357
0.00462437
0.00471077
0.00479248
0.00486894
0.00494015
0.00500775
0.00507536
0.00514744
0.00522546
0.00530644
0.00166884
0.00114407
0.000889674
0.000748591
0.000662281
0.000605292
0.000565372
0.000536073
0.000513745
0.0004962
0.00048206
0.000470431
0.000460714
0.000452511
0.00044557
0.000439761
0.000435074
0.000431622
0.000429665
0.000429633
0.000432157
0.000438085
0.000448492
0.000464671
0.000488122
0.000520564
0.000564
0.000620823
0.000693867
0.000786313
0.000901389
0.001042
0.00121027
0.00140721
0.00162954
0.00167517
0.001169
0.000996234
0.001021
0.00116681
0.00137002
0.00159602
0.0018276
0.00205436
0.00227006
0.00247146
0.00265761
0.00282872
0.00298561
0.00312935
0.00326109
0.00338195
0.00349294
0.00359498
0.00368886
0.00377528
0.00385487
0.0039282
0.00399586
0.00405844
0.00411651
0.00417054
0.00422074
0.00426711
0.00430956
0.00434846
0.00438502
0.00442187
0.00446122
0.00450954
0.0016689
0.00114554
0.000891288
0.000750242
0.000663892
0.000606891
0.0005671
0.00053825
0.00051702
0.000501797
0.000492153
0.000488647
0.000492744
0.000506702
0.000533302
0.000575467
0.000636023
0.00071777
0.000823553
0.000955794
0.00111562
0.00130224
0.00151287
0.00174325
0.00198831
0.00224302
0.00250288
0.00276428
0.00302449
0.00328162
0.00353446
0.00378252
0.00402598
0.00426541
0.00449967
0.00156877
0.00110884
0.00104682
0.00111857
0.00122602
0.00133787
0.00144304
0.00153757
0.00162007
0.00169042
0.00174843
0.00179424
0.00182818
0.00185092
0.00186358
0.00186756
0.0018644
0.00185566
0.00184275
0.00182686
0.00180904
0.00179005
0.00177047
0.00175072
0.00173115
0.00171211
0.00169398
0.00167711
0.00166161
0.00164701
0.001632
0.00161446
0.00159298
0.00156664
0.00154415
0.00160331
0.00114268
0.0010813
0.00115694
0.00127148
0.00139133
0.00150367
0.0016042
0.0016918
0.00176659
0.00182857
0.00187778
0.00191451
0.00193943
0.00195362
0.0019585
0.00195572
0.0019469
0.0019336
0.00191714
0.00189858
0.00187879
0.00185842
0.00183801
0.00181801
0.00179874
0.00178024
0.00176215
0.00174367
0.00172388
0.00170258
0.00168136
0.00166515
0.0016596
0.00167554
0.00151283
0.00107193
0.00103197
0.00111013
0.00121052
0.00130826
0.00139633
0.00147291
0.00153901
0.00159537
0.00164229
0.00167986
0.00170825
0.00172789
0.00173952
0.00174414
0.00174285
0.00173684
0.0017272
0.00171493
0.00170085
0.00168565
0.0016698
0.00165371
0.00163766
0.00162195
0.00160686
0.00159267
0.0015795
0.0015671
0.00155475
0.00154101
0.00152504
0.00150526
0.00148971
0.00153841
0.00108524
0.00103417
0.0011079
0.00121051
0.00131391
0.00140809
0.00149047
0.00156189
0.00162304
0.00167416
0.00171539
0.00174693
0.00176919
0.00178289
0.00178902
0.00178876
0.00178335
0.00177399
0.00176176
0.00174756
0.00173213
0.00171604
0.00169976
0.00168366
0.00166805
0.00165306
0.00163857
0.00162416
0.00160914
0.00159309
0.00157634
0.00156155
0.00155154
0.0015568
0.000833454
0.000579787
0.000515907
0.000496791
0.000492841
0.000495012
0.000499633
0.000505035
0.000510577
0.000516038
0.000521315
0.000526371
0.000531208
0.000535843
0.000540299
0.000544593
0.00054873
0.000552708
0.000556517
0.000560145
0.000563583
0.000566821
0.000569855
0.000572689
0.000575332
0.000577801
0.000580108
0.000582253
0.000584223
0.000585987
0.000587547
0.000588934
0.000590417
0.000591932
0.000595107
0.00167277
0.00116209
0.000965369
0.00095261
0.00106895
0.00126174
0.00149126
0.0017353
0.00197986
0.00221588
0.0024381
0.00264399
0.00283264
0.00300394
0.00315816
0.00329579
0.00341746
0.00352402
0.00361654
0.00369625
0.00376453
0.00382281
0.00387253
0.0039151
0.00395183
0.00398392
0.0040124
0.00403806
0.00406135
0.00408238
0.00410108
0.00411751
0.00413308
0.00414937
0.00417516
0.00167375
0.00117364
0.00102272
0.00106927
0.00122041
0.00141673
0.00163003
0.00184479
0.00205156
0.00224535
0.00242409
0.00258748
0.00273609
0.00287094
0.00299316
0.00310378
0.00320371
0.00329377
0.0033747
0.0034472
0.003512
0.00356977
0.00362124
0.00366713
0.00370818
0.00374515
0.0037787
0.00380932
0.00383728
0.0038626
0.00388533
0.00390581
0.00392569
0.00394635
0.00397644
0.00166963
0.00119789
0.00111888
0.00122154
0.00138946
0.00157364
0.0017546
0.00192401
0.00207885
0.00221838
0.00234353
0.00245558
0.00255596
0.00264617
0.00272755
0.00280134
0.00286864
0.00293031
0.00298707
0.00303948
0.00308803
0.00313308
0.00317499
0.00321407
0.00325065
0.00328503
0.00331738
0.00334764
0.00337558
0.00340097
0.00342412
0.00344621
0.00346968
0.0034963
0.00353176
0.00158179
0.00111086
0.00103293
0.00109414
0.00119811
0.0013105
0.0014189
0.00151821
0.00160689
0.00168515
0.00175387
0.00181409
0.00186682
0.00191291
0.00195301
0.00198761
0.00201717
0.0020421
0.00206282
0.0020798
0.0020935
0.00210439
0.00211294
0.00211959
0.00212476
0.00212885
0.00213219
0.00213496
0.00213718
0.00213867
0.00213917
0.00213857
0.00213803
0.00213795
0.00214841
0.000621077
0.000410682
0.00036056
0.000346193
0.000343604
0.000345385
0.00034877
0.000352708
0.00035677
0.000360766
0.000364608
0.000368262
0.000371728
0.000375023
0.000378162
0.000381156
0.000384007
0.000386715
0.000389277
0.000391687
0.000393939
0.000396032
0.000397966
0.000399748
0.000401395
0.000402927
0.000404359
0.000405689
0.000406898
0.000407958
0.000408882
0.000409729
0.000410725
0.000411793
0.000414008
0.00167245
0.00115825
0.000961871
0.000951075
0.00106793
0.0012586
0.00148523
0.00172754
0.00197249
0.0022111
0.00243788
0.00265004
0.00284665
0.00302793
0.00319468
0.00334802
0.00348919
0.00361941
0.00373987
0.00385163
0.00395566
0.00405279
0.00414386
0.00422968
0.00431109
0.00438873
0.00446276
0.00453277
0.00459804
0.00465853
0.00471597
0.00477417
0.0048377
0.00490779
0.00498099
0.00110241
0.000719543
0.000664278
0.000672863
0.000694026
0.000717425
0.00073994
0.000760294
0.000778582
0.000795009
0.000809844
0.000823319
0.000835638
0.000846995
0.000857567
0.000867501
0.000876905
0.000885855
0.000894397
0.000902562
0.000910362
0.000917802
0.000924888
0.000931633
0.000938056
0.000944184
0.000950026
0.000955551
0.000960691
0.000965358
0.000969576
0.000973489
0.000977803
0.00098241
0.00099121
0.00167312
0.0011753
0.00101592
0.00105851
0.00121892
0.00143075
0.00166099
0.00189205
0.00211202
0.0023127
0.00248791
0.00263456
0.00275228
0.00284223
0.00290684
0.00294935
0.00297335
0.00298243
0.00297991
0.00296865
0.002951
0.00292882
0.00290354
0.00287629
0.00284804
0.00281969
0.00279219
0.00276636
0.00274249
0.00271966
0.00269547
0.00266621
0.00262907
0.0025846
0.00254273
0.0016734
0.00117595
0.00101764
0.00106279
0.00122643
0.00144063
0.00167201
0.0019034
0.0021233
0.00232377
0.00249887
0.0026455
0.00276323
0.00285324
0.0029179
0.00296045
0.00298447
0.00299356
0.00299098
0.00297961
0.0029618
0.00293944
0.0029141
0.00288708
0.00285943
0.00283185
0.00280452
0.00277689
0.00274777
0.00271613
0.00268262
0.00265141
0.00263152
0.0026338
0.00266685
0.00140059
0.000963562
0.000923194
0.000982716
0.00105999
0.00113652
0.00120671
0.00126865
0.00132192
0.00136627
0.00140194
0.00142919
0.00144816
0.00145926
0.0014632
0.00146096
0.00145366
0.00144238
0.00142817
0.00141197
0.00139452
0.00137639
0.00135801
0.00133981
0.00132212
0.00130512
0.00128871
0.00127236
0.00125521
0.00123658
0.0012169
0.00119887
0.00118822
0.00119059
0.00121266
0.00133374
0.000894687
0.000848051
0.000895049
0.000959285
0.00102413
0.00108421
0.00113747
0.00118329
0.00122142
0.00125207
0.00127534
0.00129135
0.00130045
0.00130325
0.00130064
0.00129358
0.00128303
0.00126996
0.00125518
0.0012393
0.00122281
0.00120604
0.00118924
0.00117269
0.00115668
0.00114158
0.00112767
0.00111499
0.00110288
0.00108992
0.00107398
0.00105387
0.00102963
0.00100912
0.00166901
0.00114637
0.000892572
0.000752305
0.000668208
0.00061703
0.000590013
0.000585975
0.000608171
0.000661622
0.000750349
0.000876114
0.00103895
0.00123702
0.00146572
0.00171785
0.00198521
0.00226024
0.00253691
0.00281083
0.00307901
0.00333952
0.00359126
0.00383368
0.00406668
0.0042904
0.00450508
0.0047108
0.0049075
0.00509515
0.00527431
0.00544663
0.00561478
0.00578094
0.00594508
0.000893048
0.000609261
0.000553991
0.000542697
0.000544173
0.000550923
0.000559599
0.000568575
0.000576952
0.000584381
0.000590584
0.000595316
0.000598378
0.000599687
0.000599293
0.000597348
0.000594075
0.000589729
0.000584561
0.000578804
0.000572661
0.00056629
0.000559816
0.000553341
0.000546951
0.000540735
0.000534783
0.00052916
0.000523868
0.000518758
0.000513531
0.00050775
0.000501268
0.000494087
0.000488326
0.00167283
0.00116289
0.000968648
0.000958345
0.00107491
0.0012668
0.00149639
0.00174122
0.00198633
0.00222214
0.00244331
0.00264735
0.00283325
0.00300083
0.00315026
0.00328201
0.00339686
0.00349589
0.0035804
0.00365189
0.00371198
0.0037623
0.00380441
0.0038398
0.00386984
0.00389573
0.00391849
0.00393886
0.00395722
0.00397359
0.00398781
0.00399991
0.00401139
0.00402413
0.00404678
0.0010345
0.000814923
0.000697114
0.000651515
0.000631413
0.000621099
0.000615566
0.000612631
0.00061121
0.000610689
0.000610696
0.000610982
0.000611354
0.000611657
0.000611778
0.00061164
0.0006112
0.000610446
0.000609388
0.000608058
0.000606494
0.000604742
0.000602846
0.000600848
0.000598785
0.000596693
0.000594598
0.000592526
0.000590493
0.00058851
0.000586568
0.000584678
0.000582752
0.000581112
0.000578645
0.00084057
0.00064245
0.000544565
0.000506709
0.000490009
0.000481597
0.000477102
0.000474812
0.000473828
0.000473639
0.000473967
0.000474655
0.000475606
0.000476756
0.000478062
0.000479491
0.000481018
0.000482624
0.000484291
0.000486005
0.000487753
0.000489526
0.000491316
0.000493121
0.000494936
0.000496756
0.000498564
0.000500341
0.000502069
0.000503756
0.000505443
0.000507199
0.000509071
0.000510931
0.00051311
0.0014711
0.00102816
0.000977031
0.00103048
0.00110432
0.00117771
0.00124492
0.00130434
0.00135574
0.00139976
0.00143701
0.00146794
0.00149284
0.00151201
0.0015258
0.00153467
0.00153919
0.00154001
0.00153782
0.00153326
0.00152695
0.00151939
0.00151101
0.00150218
0.00149317
0.00148424
0.00147555
0.00146715
0.00145896
0.00145067
0.00144197
0.00143262
0.00142372
0.0014152
0.0014171
0.00167353
0.00116377
0.000980924
0.000990273
0.00112301
0.00132014
0.00154668
0.00178411
0.0020202
0.00224698
0.00246005
0.00265756
0.00283946
0.00300646
0.00315959
0.00330008
0.00342924
0.00354826
0.00365819
0.00375992
0.00385423
0.0039418
0.00402324
0.00409916
0.00417013
0.00423668
0.00429915
0.00435757
0.00441176
0.00446163
0.00450785
0.00455223
0.00459789
0.00464723
0.00470374
0.00148738
0.00104334
0.000998856
0.00106647
0.00115758
0.00124936
0.00133435
0.00140986
0.00147513
0.00152965
0.00157376
0.00160766
0.00163161
0.00164614
0.00165218
0.00165091
0.0016437
0.00163186
0.00161662
0.00159907
0.00158004
0.00156016
0.00153995
0.00151991
0.00150045
0.00148177
0.00146373
0.00144571
0.00142671
0.00140593
0.00138395
0.00136402
0.00135286
0.0013573
0.00138422
0.00146305
0.00101455
0.000965988
0.00102816
0.00111358
0.00119999
0.00128006
0.00135115
0.00141249
0.00146369
0.00150505
0.00153674
0.001559
0.00157235
0.00157766
0.00157606
0.00156883
0.00155724
0.00154246
0.00152552
0.00150721
0.00148809
0.00146856
0.00144898
0.00142969
0.00141107
0.00139354
0.0013775
0.00136295
0.00134908
0.00133405
0.00131519
0.00129092
0.00126164
0.00123644
0.0016689
0.00114589
0.0008917
0.000750675
0.000664331
0.000607314
0.000567465
0.00053846
0.000516873
0.000500898
0.000489783
0.000483585
0.000483073
0.000489683
0.000505418
0.000532688
0.000574103
0.000632374
0.000710325
0.000810774
0.000936029
0.0010872
0.00126375
0.0014635
0.001683
0.00191813
0.00216473
0.00241902
0.00267794
0.00293918
0.00320117
0.00346301
0.00372439
0.00398526
0.00424393
0.00145276
0.00103109
0.00099028
0.00104847
0.00112359
0.0011963
0.00126097
0.00131725
0.00136543
0.00140646
0.00144116
0.00147002
0.00149329
0.0015112
0.00152406
0.00153231
0.00153644
0.00153705
0.00153477
0.00153019
0.00152387
0.00151632
0.00150793
0.00149905
0.00148994
0.00148081
0.00147185
0.00146323
0.00145508
0.00144739
0.00144004
0.00143251
0.00142478
0.00141495
0.0014099
0.00160886
0.00113782
0.00106266
0.00113324
0.00124874
0.00137259
0.00149137
0.00160011
0.0016974
0.00178364
0.00185985
0.00192727
0.00198706
0.00204023
0.00208762
0.00212989
0.00216754
0.00220098
0.00223055
0.0022566
0.00227944
0.00229941
0.00231682
0.00233201
0.00234533
0.00235712
0.00236768
0.00237723
0.00238583
0.00239336
0.00239971
0.00240487
0.00240987
0.00241517
0.00242843
0.00103234
0.000666257
0.000613269
0.000623311
0.000647848
0.000675302
0.000701941
0.000726405
0.000748369
0.000767918
0.000785384
0.000801078
0.00081526
0.000828213
0.00084019
0.000851399
0.00086201
0.000872148
0.000881907
0.000891354
0.000900529
0.00090946
0.000918168
0.000926686
0.000935042
0.00094324
0.000951217
0.000958823
0.000965885
0.000972332
0.000978422
0.000984776
0.000992388
0.00100157
0.00101299
0.000919869
0.000721889
0.000616429
0.000575549
0.00055726
0.000547724
0.000542585
0.00053988
0.000538569
0.000538071
0.000538024
0.000538175
0.000538335
0.00053836
0.000538152
0.000537651
0.000536834
0.000535708
0.000534297
0.000532641
0.000530786
0.000528777
0.000526658
0.000524469
0.000522244
0.000520014
0.000517803
0.000515632
0.000513514
0.000511453
0.000509431
0.000507452
0.000505428
0.000503705
0.000501201
0.000988549
0.000773219
0.000657517
0.000613445
0.000594033
0.000584049
0.000578779
0.000576098
0.00057489
0.000574541
0.000574667
0.000574992
0.000575308
0.00057546
0.000575337
0.000574877
0.000574055
0.000572881
0.000571388
0.000569623
0.000567638
0.000565487
0.00056322
0.000560882
0.000558511
0.000556139
0.000553788
0.000551469
0.000549185
0.000546932
0.000544707
0.000542565
0.000540494
0.000538967
0.000536803
0.00160151
0.00115473
0.00110798
0.00119066
0.00130745
0.00142664
0.00153821
0.00163921
0.00172925
0.00180899
0.00187938
0.00194154
0.00199671
0.00204596
0.00209015
0.00212999
0.00216603
0.00219872
0.00222843
0.00225544
0.00228003
0.00230239
0.00232275
0.00234133
0.0023584
0.00237426
0.00238914
0.00240306
0.00241581
0.00242706
0.00243687
0.00244591
0.00245623
0.00246812
0.00248999
0.00167094
0.00115055
0.000918651
0.000839204
0.000875488
0.00100955
0.00121286
0.00145692
0.00172157
0.0019922
0.00225842
0.00251381
0.00275511
0.00298108
0.00319165
0.00338743
0.00356935
0.00373848
0.00389589
0.00404258
0.00417953
0.0043076
0.00442764
0.00454047
0.00464688
0.00474751
0.00484272
0.00493246
0.00501644
0.00509479
0.00516882
0.00524134
0.00531617
0.00539516
0.00547858
0.00167227
0.00115833
0.000962911
0.000954351
0.00107384
0.00126567
0.00149139
0.00173101
0.0019719
0.00220546
0.00242667
0.00263306
0.00282397
0.00299979
0.0031614
0.00331004
0.00344696
0.00357339
0.00369043
0.00379905
0.00390011
0.00399436
0.00408247
0.00416511
0.0042429
0.00431636
0.0043857
0.00445081
0.00451137
0.00456741
0.00462004
0.00467178
0.00472614
0.00478502
0.00484928
0.00164735
0.00116401
0.001075
0.00115841
0.00130483
0.00146878
0.00163051
0.00178139
0.00191835
0.00204105
0.00215036
0.00224759
0.00233424
0.00241179
0.00248157
0.0025448
0.00260249
0.00265549
0.00270452
0.00275012
0.00279278
0.00283287
0.00287072
0.00290665
0.00294094
0.00297379
0.00300516
0.00303473
0.00306207
0.00308706
0.00311057
0.0031346
0.00316195
0.00319398
0.00323088
0.00167145
0.00115484
0.000927176
0.000855485
0.000903031
0.00104712
0.00125542
0.00150022
0.00176305
0.00203033
0.00229222
0.00254246
0.00277768
0.0029963
0.00319774
0.00338194
0.0035491
0.00369969
0.00383442
0.00395426
0.00406038
0.00415413
0.00423694
0.00431028
0.00437556
0.00443413
0.00448721
0.00453577
0.00458049
0.00462168
0.00465952
0.00469427
0.00472742
0.00476035
0.00480237
0.00165963
0.00118691
0.00109935
0.00119221
0.00135431
0.001538
0.0017217
0.00189422
0.00204999
0.00218586
0.00229972
0.00239141
0.00246146
0.00251119
0.00254271
0.00255862
0.0025618
0.00255502
0.00254082
0.00252134
0.00249828
0.00247293
0.00244625
0.00241898
0.00239169
0.00236501
0.00233966
0.00231623
0.00229489
0.00227478
0.00225362
0.00222789
0.00219493
0.00215474
0.00211716
0.00165939
0.00118938
0.00110611
0.0011981
0.00135673
0.00153734
0.00171869
0.00188932
0.0020434
0.00217798
0.00229106
0.00238222
0.00245189
0.00250135
0.00253266
0.00254842
0.00255144
0.00254453
0.0025302
0.00251058
0.00248739
0.00246196
0.00243529
0.00240832
0.00238175
0.00235601
0.00233106
0.00230618
0.00228012
0.00225176
0.00222166
0.00219375
0.00217665
0.00218024
0.00221359
0.00166896
0.00114644
0.000892381
0.000751423
0.000665253
0.000608929
0.000570961
0.000546234
0.000533383
0.000533827
0.000551225
0.000590644
0.000657162
0.000754579
0.00088519
0.00104998
0.00124798
0.00147559
0.00172676
0.00199424
0.00227083
0.00255035
0.00282812
0.00310093
0.00336685
0.00362481
0.00387432
0.00411521
0.00434737
0.00457078
0.00478567
0.00499284
0.00519384
0.00539038
0.00558338
0.00166975
0.0011476
0.000899746
0.000779063
0.000740189
0.000774129
0.000878509
0.00104263
0.00125135
0.00149163
0.00175194
0.00202183
0.00229285
0.0025589
0.00281602
0.0030618
0.00329508
0.0035155
0.00372314
0.00391856
0.00410239
0.00427535
0.00443822
0.0045918
0.0047369
0.00487428
0.00500441
0.00512742
0.00524321
0.00535193
0.00545479
0.00555437
0.0056543
0.00575668
0.00586221
0.00167618
0.0011858
0.00104959
0.00112565
0.00131658
0.00154973
0.00179077
0.00202407
0.00224199
0.00244097
0.00261969
0.00277782
0.00291555
0.00303339
0.0031322
0.00321321
0.00327797
0.00332834
0.00336632
0.00339398
0.00341326
0.00342596
0.00343363
0.00343759
0.00343891
0.00343847
0.003437
0.00343509
0.0034332
0.0034316
0.00343034
0.00342897
0.00342743
0.00342372
0.00342535
0.00166304
0.00119596
0.00111687
0.00121127
0.0013704
0.00154661
0.0017185
0.00187615
0.00201625
0.0021387
0.00224414
0.00233335
0.00240706
0.00246599
0.00251115
0.00254378
0.0025654
0.00257774
0.00258253
0.00258142
0.00257591
0.00256725
0.00255647
0.00254441
0.00253173
0.00251899
0.00250655
0.00249457
0.00248289
0.002471
0.00245831
0.00244448
0.00243092
0.00241931
0.00241972
0.00132025
0.000874283
0.000808884
0.000837201
0.000886158
0.000938552
0.000988767
0.00103465
0.00107554
0.00111151
0.00114302
0.00117055
0.00119456
0.00121542
0.00123343
0.00124878
0.00126167
0.00127227
0.00128079
0.00128745
0.00129249
0.00129616
0.00129867
0.00130028
0.00130119
0.00130162
0.00130173
0.0013016
0.0013012
0.00130037
0.00129895
0.00129686
0.00129504
0.00129346
0.00130043
0.00167397
0.001189
0.00108151
0.00117307
0.00135001
0.00155422
0.001762
0.0019621
0.00214898
0.00232032
0.00247554
0.00261575
0.00274226
0.00285644
0.00295948
0.00305254
0.00313662
0.00321256
0.00328113
0.00334301
0.00339884
0.0034492
0.00349465
0.00353577
0.00357316
0.00360746
0.00363921
0.00366864
0.00369562
0.00371987
0.00374149
0.00376154
0.00378251
0.00380605
0.00383737
0.00166913
0.00114759
0.000894153
0.00075554
0.000675893
0.000634512
0.000626106
0.000652713
0.000718316
0.000824959
0.000972216
0.00115835
0.00137968
0.00162954
0.00189896
0.0021786
0.00246042
0.00273847
0.00300888
0.00326936
0.0035187
0.00375636
0.00398223
0.00419648
0.00439953
0.00459191
0.00477426
0.00494706
0.00511074
0.0052657
0.00541261
0.00555284
0.00568866
0.00582244
0.00595646
0.00166972
0.0011495
0.000900595
0.000775272
0.000726292
0.00074329
0.000825973
0.000968908
0.00116064
0.00138951
0.00164445
0.00191437
0.0021894
0.00246185
0.00272623
0.00297897
0.0032178
0.00344138
0.00364915
0.00384099
0.00401737
0.00417917
0.00432747
0.00446348
0.00458853
0.00470398
0.00481109
0.00491094
0.00500432
0.00509178
0.00517377
0.00525102
0.0053252
0.00539824
0.00547636
0.00165828
0.0011984
0.00113065
0.00122993
0.00138698
0.00155515
0.00171528
0.00186024
0.00198819
0.00209947
0.00219493
0.00227538
0.0023415
0.00239409
0.00243413
0.00246283
0.00248161
0.00249199
0.00249552
0.00249369
0.00248784
0.0024791
0.00246841
0.00245651
0.00244396
0.00243125
0.00241873
0.00240675
0.00239556
0.00238519
0.00237541
0.00236542
0.00235474
0.00234119
0.00233146
0.00162534
0.00115505
0.00108606
0.00117284
0.00130883
0.00145282
0.0015895
0.00171371
0.00182454
0.00192261
0.00200928
0.00208572
0.00215358
0.00221419
0.00226869
0.00231811
0.00236326
0.00240482
0.00244331
0.00247916
0.0025127
0.00254419
0.00257385
0.00260189
0.00262852
0.00265392
0.0026781
0.00270087
0.00272189
0.00274094
0.0027584
0.00277557
0.00279478
0.00281762
0.00284701
0.00161709
0.00116016
0.00109787
0.00117584
0.00129384
0.00141691
0.00153183
0.00163472
0.00172456
0.00180222
0.00186869
0.00192482
0.0019712
0.00200841
0.00203707
0.0020579
0.00207178
0.00207971
0.00208272
0.00208182
0.00207793
0.00207186
0.00206429
0.00205579
0.0020468
0.00203772
0.00202881
0.0020202
0.00201178
0.00200319
0.00199398
0.00198384
0.00197399
0.00196489
0.00196785
0.00141208
0.000935316
0.000860904
0.000901011
0.000968313
0.00103801
0.00110307
0.00116145
0.00121295
0.00125821
0.00129807
0.00133337
0.00136486
0.00139317
0.00141887
0.00144245
0.0014643
0.00148475
0.00150405
0.0015224
0.00153995
0.00155684
0.00157318
0.00158914
0.00160487
0.00162044
0.00163567
0.00165015
0.00166345
0.00167556
0.00168745
0.00170098
0.00171813
0.0017391
0.00176075
0.00166925
0.00115112
0.000898031
0.000757487
0.000671903
0.000617154
0.000582826
0.000565332
0.000565265
0.000586022
0.000632464
0.000709383
0.000820607
0.000969024
0.00115612
0.0013805
0.00163701
0.00191732
0.0022116
0.00251021
0.00280498
0.00308979
0.00336061
0.0036152
0.00385276
0.00407347
0.00427819
0.00446815
0.0046447
0.00480912
0.00496252
0.00510579
0.00524014
0.00536643
0.00548927
0.00167382
0.00116299
0.000981673
0.000998136
0.0011426
0.00134961
0.0015813
0.0018202
0.00205578
0.00228128
0.00249295
0.00268923
0.00286995
0.00303575
0.00318768
0.00332696
0.00345486
0.00357261
0.00368137
0.00378217
0.00387591
0.0039634
0.00404539
0.00412269
0.00419609
0.00426621
0.00433317
0.00439646
0.00445528
0.0045095
0.00456084
0.00461311
0.00467096
0.00473543
0.0048041
0.000952107
0.000733326
0.000622305
0.000580882
0.000562599
0.00055322
0.00054831
0.000545891
0.000544924
0.000544805
0.00054519
0.000545857
0.000546646
0.000547429
0.000548108
0.000548607
0.000548877
0.000548895
0.000548657
0.000548179
0.000547484
0.000546605
0.000545577
0.000544433
0.000543206
0.000541926
0.000540615
0.00053929
0.000537957
0.000536619
0.000535273
0.000533961
0.000532671
0.000531758
0.000530275
0.00167069
0.00114996
0.000914495
0.000826202
0.000847685
0.000964315
0.00115178
0.00138294
0.00163834
0.00190402
0.00216959
0.00242796
0.00267491
0.00290828
0.00312729
0.00333206
0.00352319
0.00370151
0.00386788
0.00402319
0.00416828
0.00430395
0.004431
0.0045502
0.00466231
0.00476801
0.00486771
0.00496149
0.00504921
0.00513097
0.00520786
0.0052823
0.00535786
0.00543664
0.00552073
0.00166892
0.00114613
0.000892142
0.000751205
0.000664888
0.000607859
0.000567932
0.000538715
0.000516647
0.000499686
0.000486697
0.000477154
0.000471007
0.000468632
0.000470819
0.000478771
0.000494087
0.00051873
0.000555024
0.00060571
0.00067403
0.000763662
0.00087836
0.00102136
0.0011948
0.00139927
0.00163369
0.00189532
0.0021801
0.0024831
0.00279904
0.00312284
0.00345004
0.00377693
0.00409867
0.00163323
0.00115404
0.00107278
0.00115305
0.00128924
0.00143888
0.00158449
0.00171906
0.00184039
0.00194862
0.00204483
0.00213043
0.00220684
0.00227534
0.0023371
0.00239314
0.00244433
0.00249142
0.00253507
0.00257579
0.00261401
0.00265008
0.00268435
0.00271719
0.00274898
0.00277994
0.0028099
0.0028383
0.00286442
0.00288821
0.0029111
0.00293611
0.00296662
0.00300326
0.003042
0.00167216
0.00115502
0.000935645
0.000881923
0.000952654
0.00111407
0.00132901
0.00157225
0.00182767
0.00208378
0.00233258
0.00256924
0.00279156
0.00299891
0.00319145
0.00336988
0.00353512
0.00368814
0.00382986
0.00396112
0.00408272
0.00419537
0.00429978
0.00439664
0.00448667
0.00457057
0.0046489
0.00472194
0.00478974
0.00485235
0.00491034
0.00496525
0.00502001
0.00507714
0.0051417
0.000899348
0.00064097
0.000578386
0.000559797
0.000555861
0.000558361
0.000563504
0.000569644
0.000575883
0.000581801
0.00058717
0.000591813
0.000595599
0.00059843
0.000600262
0.000601102
0.000601006
0.00060007
0.000598417
0.000596179
0.000593485
0.000590458
0.000587202
0.000583812
0.000580367
0.000576934
0.000573558
0.000570256
0.000567005
0.000563741
0.00056041
0.000556997
0.000553831
0.000550929
0.000550579
0.000945481
0.000734834
0.00062375
0.000579206
0.000559405
0.000549397
0.000544013
0.000541222
0.000539978
0.000539685
0.000540011
0.000540757
0.000541806
0.000543083
0.000544539
0.000546138
0.000547852
0.000549658
0.000551539
0.000553477
0.000555458
0.000557469
0.000559504
0.000561554
0.000563613
0.000565671
0.000567708
0.000569705
0.00057165
0.00057356
0.000575483
0.000577485
0.0005796
0.000581677
0.00058402
0.00167144
0.00115179
0.0009182
0.000833424
0.000861216
0.000986376
0.0011825
0.00142176
0.00168501
0.00195832
0.00223119
0.00249643
0.00274973
0.00298886
0.00321291
0.00342185
0.00361613
0.00379657
0.00396413
0.00411982
0.00426464
0.00439949
0.00452526
0.00464283
0.00475315
0.00485709
0.00495525
0.0050477
0.00513409
0.00521417
0.0052888
0.00536059
0.00543363
0.0055103
0.00559241
0.00166997
0.00115494
0.00090376
0.000769465
0.000700449
0.000682452
0.000717166
0.000809229
0.000956629
0.00115047
0.00137928
0.00163042
0.00189093
0.00214918
0.00239602
0.00262499
0.00283211
0.00301547
0.00317479
0.00331106
0.00342603
0.00352197
0.00360133
0.00366658
0.00372008
0.00376403
0.00380035
0.00383064
0.00385603
0.00387714
0.00389422
0.00390749
0.0039183
0.00392891
0.00394724
0.00166905
0.00114841
0.00089479
0.000754078
0.000668296
0.000612909
0.000576988
0.000556184
0.000550062
0.000560859
0.000592468
0.000649181
0.000734624
0.000851521
0.00100154
0.00118427
0.00139621
0.00163116
0.00188135
0.00213992
0.00240164
0.00266261
0.00292047
0.0031739
0.00342212
0.00366467
0.00390119
0.00413144
0.00435513
0.00457199
0.00478178
0.00498447
0.00518058
0.00537089
0.00555731
0.00155619
0.00106838
0.000985295
0.00104748
0.00115319
0.00126533
0.00137125
0.001467
0.00155199
0.00162692
0.00169291
0.00175109
0.00180259
0.00184849
0.00188981
0.00192734
0.00196174
0.00199356
0.00202324
0.00205112
0.00207747
0.00210248
0.00212635
0.00214925
0.00217136
0.00219277
0.00221337
0.00223286
0.00225085
0.00226726
0.00228281
0.00229912
0.00231837
0.00234148
0.00236833
0.0016086
0.00114873
0.00108972
0.00117006
0.00128746
0.00140674
0.00151693
0.00161493
0.00170143
0.00177747
0.00184454
0.00190399
0.00195694
0.00200437
0.00204716
0.00208602
0.00212153
0.00215413
0.00218419
0.00221196
0.00223768
0.00226153
0.00228365
0.00230421
0.00232339
0.00234136
0.00235825
0.00237404
0.00238864
0.00240183
0.00241366
0.00242453
0.00243604
0.00244872
0.00247128
0.00166918
0.00114768
0.000894539
0.000756321
0.000677727
0.000639023
0.000636579
0.000674727
0.000759308
0.000892356
0.00107106
0.00128973
0.00154016
0.00181209
0.00209516
0.00238071
0.00266243
0.00293619
0.00319952
0.00345106
0.00369019
0.00391675
0.00413093
0.00433315
0.00452409
0.00470459
0.00487552
0.00503759
0.00519117
0.0053365
0.00547414
0.00560551
0.00573325
0.00585975
0.00598806
0.00144197
0.00098959
0.000935079
0.000986341
0.00106003
0.00113388
0.0012019
0.00126273
0.0013165
0.0013639
0.00140568
0.00144257
0.00147533
0.00150469
0.00153121
0.00155532
0.00157737
0.00159763
0.00161629