/*--------------------------------*- C++ -*----------------------------------*\
| =========                 |                                                 |
| \\      /  F ield         | OpenFOAM: The Open Source CFD Toolbox           |
|  \\    /   O peration     | Version:  2.4.x                                 |
|   \\  /    A nd           | Web:      www.OpenFOAM.org                      |
|    \\/     M anipulation  |                                                 |
\*---------------------------------------------------------------------------*/
FoamFile
{
    version     2.0;
    format      ascii;
    class       volScalarField;
    location    "9960/coolant";
    object      p_rgh;
}
// * * * * * * * * * * * * * * * * * * * * * * * * * * * * * * * * * * * * * //

dimensions      [1 -1 -2 0 0 0 0];

internalField   nonuniform List<scalar> 
109760
(
5.25231
4.64044
4.31255
4.10467
3.92168
3.75369
3.59934
3.45424
3.31524
3.18065
3.04936
2.92047
2.79328
2.66723
2.5419
2.41697
2.29224
2.16757
2.04287
1.91813
1.79334
1.66853
1.54373
1.41898
1.29432
1.16979
1.04542
0.921259
0.797321
0.673669
0.550296
0.427315
0.304628
0.182421
0.0628353
5.33219
4.59389
4.30281
4.09906
3.91744
3.75116
3.59763
3.45284
3.314
3.17951
3.04829
2.91945
2.79231
2.6663
2.54102
2.41614
2.29145
2.16682
2.04216
1.91745
1.7927
1.66791
1.54314
1.41841
1.29378
1.16927
1.04493
0.92078
0.79686
0.673224
0.549855
0.426883
0.304139
0.181988
0.0612986
5.54502
4.51754
4.28107
4.08646
3.90737
3.74428
3.59267
3.44901
3.31104
3.17727
3.04667
2.91837
2.79168
2.66604
2.54103
2.41635
2.29178
2.1672
2.04256
1.91783
1.79303
1.6682
1.54337
1.41859
1.2939
1.16935
1.04496
0.920787
0.796842
0.673196
0.549802
0.426856
0.303784
0.182324
0.0551134
5.38628
4.56443
4.29794
4.09538
3.91494
3.74933
3.59608
3.45147
3.31278
3.17843
3.04732
2.91858
2.79152
2.66559
2.54037
2.41554
2.2909
2.16631
2.04169
1.91702
1.79229
1.66753
1.54278
1.41808
1.29346
1.16897
1.04464
0.920514
0.796615
0.672997
0.549639
0.426662
0.303919
0.181716
0.0613927
5.46852
4.54128
4.28882
4.0906
3.9111
3.74667
3.5942
3.45005
3.3117
3.17761
3.04671
2.91815
2.79123
2.66541
2.54027
2.41551
2.29091
2.16635
2.04174
1.91707
1.79234
1.66758
1.54282
1.41811
1.29348
1.16898
1.04464
0.920504
0.796592
0.672967
0.549603
0.426646
0.303799
0.181887
0.0587057
5.32082
4.59861
4.30417
4.09955
3.91798
3.75154
3.59791
3.45309
3.31422
3.17972
3.04847
2.91961
2.79244
2.66642
2.54112
2.41623
2.29153
2.16689
2.04223
1.91752
1.79276
1.66798
1.5432
1.41848
1.29384
1.16934
1.04499
0.920848
0.796929
0.673296
0.549935
0.426963
0.304249
0.182032
0.0619805
5.17022
4.68691
4.324
4.11007
3.92694
3.75682
3.60127
3.4557
3.31639
3.18158
3.05014
2.92115
2.79389
2.66781
2.54246
2.41754
2.29283
2.16818
2.04352
1.91881
1.79405
1.66927
1.5445
1.41978
1.29515
1.17065
1.04631
0.922171
0.79826
0.674627
0.551282
0.428312
0.305703
0.183624
0.0656118
5.36356
4.58258
4.29829
4.09667
3.91557
3.74986
3.59666
3.45206
3.31335
3.17898
3.04785
2.91909
2.79202
2.66606
2.54082
2.41598
2.29131
2.1667
2.04206
1.91736
1.7926
1.66782
1.54305
1.41833
1.29369
1.16918
1.04484
0.920695
0.796776
0.673142
0.549774
0.426807
0.304025
0.181987
0.0601178
5.20011
4.67099
4.31938
4.10813
3.92492
3.7556
3.60052
3.45514
3.31595
3.18123
3.04985
2.92091
2.79369
2.66764
2.54231
2.4174
2.2927
2.16806
2.04339
1.91868
1.79392
1.66913
1.54434
1.4196
1.29494
1.17041
1.04604
0.921872
0.797928
0.674265
0.550887
0.427894
0.305236
0.183072
0.0641483
5.54405
4.5165
4.28107
4.0866
3.90716
3.74427
3.59276
3.44913
3.31118
3.17746
3.04689
2.91864
2.792
2.66639
2.54139
2.4167
2.29211
2.16751
2.04284
1.91808
1.79326
1.6684
1.54355
1.41875
1.29405
1.16948
1.04509
0.920904
0.796941
0.67327
0.549826
0.426864
0.303678
0.182436
0.0542192
5.54441
4.51584
4.28106
4.08666
3.90724
3.74433
3.59281
3.44917
3.3112
3.17746
3.04689
2.91863
2.79197
2.66636
2.54136
2.41666
2.29207
2.16747
2.0428
1.91804
1.79322
1.66836
1.54351
1.41872
1.29401
1.16945
1.04505
0.920876
0.796928
0.67328
0.549877
0.42693
0.303773
0.182459
0.0541576
5.54072
4.5175
4.28125
4.08678
3.90736
3.74437
3.59279
3.44913
3.31115
3.1774
3.04681
2.91854
2.79188
2.66626
2.54126
2.41658
2.292
2.16741
2.04274
1.918
1.79318
1.66833
1.54349
1.4187
1.294
1.16944
1.04505
0.920866
0.796907
0.673238
0.549798
0.426835
0.303673
0.182381
0.0545
5.53992
4.51714
4.28119
4.08675
3.90739
3.74439
3.59282
3.44916
3.31118
3.17742
3.04683
2.91856
2.79189
2.66626
2.54125
2.41656
2.29198
2.16738
2.04272
1.91797
1.79316
1.66831
1.54347
1.41868
1.29398
1.16942
1.04502
0.920848
0.796901
0.673253
0.549853
0.426906
0.303779
0.182419
0.054474
5.47523
4.54006
4.28852
4.09041
3.91108
3.74667
3.5942
3.45005
3.31169
3.1776
3.04669
2.91812
2.79119
2.66536
2.54022
2.41546
2.29086
2.16629
2.04168
1.91701
1.79229
1.66753
1.54277
1.41806
1.29344
1.16894
1.0446
0.920467
0.796558
0.672937
0.549576
0.426619
0.303785
0.181844
0.0589323
5.40626
4.57091
4.29255
4.09429
3.91328
3.74843
3.5958
3.45148
3.31297
3.17875
3.04774
2.91909
2.7921
2.66622
2.54104
2.41622
2.29158
2.16696
2.0423
1.91759
1.79281
1.66801
1.54321
1.41846
1.2938
1.16927
1.04491
0.920755
0.796824
0.67318
0.549795
0.426833
0.303924
0.182163
0.0575563
5.39401
4.57114
4.29456
4.09483
3.91401
3.74883
3.59595
3.45151
3.31292
3.17864
3.04759
2.9189
2.79188
2.66598
2.54078
2.41597
2.29132
2.16672
2.04208
1.91739
1.79263
1.66785
1.54307
1.41834
1.2937
1.16919
1.04484
0.920692
0.79677
0.673134
0.54976
0.426795
0.303953
0.182046
0.0588839
5.3904
4.56746
4.2959
4.09483
3.91431
3.74893
3.59587
3.45135
3.31272
3.17841
3.04734
2.91864
2.79161
2.66569
2.54049
2.41567
2.29103
2.16644
2.04181
1.91713
1.79239
1.66763
1.54287
1.41815
1.29353
1.16903
1.04469
0.920558
0.796648
0.673023
0.549661
0.426697
0.303917
0.181866
0.06013
5.4649
4.54284
4.28812
4.09079
3.91085
3.74659
3.59425
3.45014
3.31182
3.17777
3.04691
2.91839
2.79152
2.66574
2.54063
2.41588
2.29129
2.16672
2.0421
1.91742
1.79266
1.66788
1.5431
1.41836
1.29371
1.16919
1.04483
0.920675
0.796747
0.673109
0.549728
0.426772
0.303842
0.182111
0.0573026
5.48619
4.53359
4.28845
4.09065
3.91116
3.74671
3.59422
3.45004
3.31166
3.17755
3.04665
2.91809
2.79118
2.66536
2.54023
2.41548
2.29088
2.16632
2.04172
1.91705
1.79232
1.66756
1.5428
1.41808
1.29345
1.16895
1.04461
0.920478
0.796565
0.672937
0.549557
0.426587
0.303707
0.181795
0.0586995
5.33173
4.59229
4.30305
4.09875
3.91735
3.75106
3.59748
3.45268
3.31384
3.17935
3.04813
2.91929
2.79215
2.66614
2.54086
2.41598
2.2913
2.16667
2.04202
1.91732
1.79257
1.66779
1.54303
1.41831
1.29368
1.16917
1.04483
0.920696
0.796783
0.673154
0.549796
0.426827
0.304113
0.1819
0.061827
5.45406
4.54529
4.29057
4.09141
3.91185
3.74718
3.59455
3.45031
3.31188
3.17774
3.04679
2.91819
2.79123
2.66538
2.54022
2.41545
2.29084
2.16627
2.04166
1.91699
1.79227
1.66751
1.54275
1.41805
1.29343
1.16893
1.0446
0.920469
0.796564
0.672945
0.549586
0.426625
0.303815
0.181815
0.0595176
5.51304
4.53168
4.28359
4.08869
3.90854
3.74544
3.5938
3.45002
3.31193
3.17807
3.04738
2.91902
2.79227
2.66657
2.5415
2.41675
2.29211
2.16748
2.04278
1.91801
1.79318
1.66831
1.54346
1.41866
1.29396
1.1694
1.04502
0.920838
0.796882
0.673212
0.54976
0.426785
0.303563
0.182351
0.0538351
5.51313
4.53157
4.28357
4.08869
3.90854
3.74545
3.5938
3.45003
3.31194
3.17808
3.04739
2.91902
2.79227
2.66657
2.5415
2.41675
2.29211
2.16748
2.04278
1.91801
1.79317
1.66831
1.54346
1.41866
1.29396
1.1694
1.045
0.920827
0.796877
0.673227
0.549827
0.426895
0.303754
0.182521
0.0538572
5.56411
4.5091
4.2798
4.0857
3.90656
3.74385
3.59247
3.44893
3.31105
3.17738
3.04687
2.91866
2.79205
2.66647
2.54149
2.4168
2.29222
2.16761
2.04293
1.91817
1.79334
1.66847
1.54361
1.4188
1.29409
1.16952
1.04512
0.920939
0.796992
0.673346
0.549942
0.426984
0.303786
0.182467
0.0539556
5.56706
4.5086
4.27964
4.08557
3.90646
3.74379
3.59242
3.44889
3.31102
3.17736
3.04686
2.91865
2.79205
2.66647
2.54149
2.41681
2.29222
2.16762
2.04294
1.91817
1.79334
1.66847
1.54361
1.41881
1.2941
1.16953
1.04513
0.92094
0.796974
0.673301
0.549859
0.426905
0.30371
0.182507
0.054056
5.24185
4.64621
4.31384
4.10535
3.9223
3.75407
3.59959
3.45445
3.31541
3.18081
3.04952
2.92064
2.79346
2.66742
2.5421
2.41718
2.29246
2.16779
2.0431
1.91836
1.79357
1.66875
1.54395
1.41919
1.29453
1.16999
1.04563
0.921457
0.797515
0.673858
0.550482
0.427497
0.304814
0.182603
0.0631922
5.58236
4.50664
4.27882
4.08506
3.90619
3.74359
3.59227
3.44879
3.31095
3.1773
3.04681
2.91862
2.79202
2.66644
2.54147
2.41679
2.29221
2.16761
2.04294
1.91817
1.79334
1.66847
1.54362
1.41881
1.2941
1.16953
1.04513
0.92094
0.796973
0.6733
0.54986
0.42691
0.303732
0.182499
0.0542171
5.41598
4.56756
4.29151
4.09372
3.91278
3.74812
3.59562
3.45137
3.3129
3.17872
3.04774
2.91912
2.79215
2.66629
2.54111
2.4163
2.29165
2.16703
2.04237
1.91764
1.79286
1.66804
1.54324
1.41848
1.29382
1.16929
1.04492
0.920763
0.796828
0.673183
0.549796
0.426836
0.303904
0.182195
0.0571381
5.56792
4.51758
4.28104
4.08641
3.90733
3.74426
3.59266
3.449
3.31102
3.17725
3.04664
2.91834
2.79165
2.66602
2.54101
2.41634
2.29177
2.16721
2.04257
1.91785
1.79305
1.66822
1.54339
1.41861
1.29393
1.16937
1.04499
0.920812
0.796856
0.67319
0.549757
0.426789
0.303686
0.18226
0.0552358
5.45678
4.55049
4.29458
4.09303
3.91339
3.74824
3.59526
3.45083
3.31227
3.17801
3.04698
2.9183
2.79128
2.66538
2.54018
2.41537
2.29075
2.16617
2.04156
1.9169
1.79218
1.66742
1.54268
1.41798
1.29336
1.16887
1.04455
0.920434
0.796545
0.672935
0.549578
0.426588
0.30383
0.181608
0.0613914
5.52425
4.52308
4.28246
4.08742
3.90802
3.74472
3.59298
3.44923
3.31118
3.17736
3.04671
2.91838
2.79166
2.666
2.54097
2.41628
2.2917
2.16712
2.04248
1.91776
1.79297
1.66814
1.54332
1.41854
1.29386
1.16931
1.04493
0.920758
0.796816
0.67317
0.549777
0.426831
0.303771
0.1823
0.0552637
5.35127
4.58686
4.29983
4.09733
3.91613
3.75023
3.59691
3.45226
3.31352
3.17912
3.04797
2.91919
2.79208
2.66611
2.54086
2.416
2.29133
2.16671
2.04206
1.91736
1.79261
1.66783
1.54306
1.41833
1.2937
1.16919
1.04485
0.92071
0.796793
0.673161
0.549797
0.426828
0.304073
0.181977
0.0607245
5.56051
4.51044
4.28012
4.08591
3.90668
3.74394
3.59253
3.44898
3.31108
3.1774
3.04688
2.91866
2.79205
2.66646
2.54147
2.41679
2.2922
2.16759
2.04292
1.91815
1.79332
1.66845
1.54359
1.41879
1.29408
1.16951
1.04511
0.920928
0.796981
0.673335
0.549932
0.426976
0.303782
0.182472
0.0539442
5.56189
4.51011
4.28002
4.08583
3.90663
3.74391
3.59251
3.44896
3.31107
3.17739
3.04687
2.91866
2.79204
2.66646
2.54147
2.41679
2.2922
2.1676
2.04292
1.91815
1.79332
1.66845
1.5436
1.41879
1.29408
1.16951
1.04512
0.920928
0.796964
0.673291
0.549847
0.426891
0.303691
0.182491
0.0540314
5.20727
4.66941
4.31778
4.10763
3.92445
3.75527
3.60032
3.45499
3.31584
3.18115
3.04979
2.92087
2.79367
2.66762
2.5423
2.4174
2.2927
2.16806
2.04339
1.91868
1.79392
1.66913
1.54435
1.41961
1.29496
1.17043
1.04607
0.921899
0.797955
0.67429
0.550908
0.427907
0.30522
0.183063
0.0633439
5.52411
4.5226
4.28237
4.08747
3.908
3.74472
3.59298
3.44922
3.31116
3.17734
3.04668
2.91835
2.79163
2.66597
2.54095
2.41626
2.29169
2.16711
2.04248
1.91775
1.79296
1.66814
1.54331
1.41854
1.29386
1.16931
1.04493
0.920756
0.796806
0.673143
0.549713
0.426746
0.303644
0.182215
0.055245
5.4404
4.5504
4.29045
4.09199
3.91191
3.74729
3.59472
3.45047
3.31205
3.17792
3.04698
2.9184
2.79146
2.66563
2.54049
2.41572
2.29111
2.16654
2.04193
1.91724
1.7925
1.66773
1.54296
1.41824
1.2936
1.16909
1.04475
0.920604
0.796685
0.673053
0.549681
0.426722
0.303852
0.181997
0.0583338
5.43734
4.54978
4.29308
4.0925
3.91285
3.74787
3.59502
3.45065
3.31214
3.17792
3.04692
2.91826
2.79127
2.66539
2.54021
2.41541
2.29079
2.16622
2.04161
1.91694
1.79222
1.66746
1.54272
1.41801
1.2934
1.16891
1.04458
0.920458
0.796562
0.672948
0.549593
0.42662
0.30385
0.181717
0.0606262
5.58151
4.51442
4.28022
4.08588
3.90689
3.744
3.5925
3.4489
3.31097
3.17724
3.04667
2.91841
2.79175
2.66614
2.54114
2.41647
2.2919
2.16732
2.04267
1.91794
1.79313
1.66829
1.54345
1.41866
1.29397
1.16941
1.04502
0.920837
0.796878
0.67321
0.549774
0.426811
0.303682
0.182321
0.0548675
5.58154
4.51375
4.28009
4.08574
3.90685
3.74397
3.59249
3.44891
3.31099
3.17728
3.04672
2.91846
2.7918
2.66618
2.54119
2.41651
2.29194
2.16735
2.0427
1.91796
1.79315
1.66831
1.54347
1.41868
1.29398
1.16942
1.04503
0.920847
0.796899
0.673252
0.549855
0.426909
0.30381
0.182381
0.0548457
5.43298
4.54879
4.29277
4.09325
3.91294
3.74796
3.59514
3.45074
3.31221
3.178
3.04701
2.91838
2.79141
2.66556
2.5404
2.41562
2.29101
2.16643
2.04182
1.91715
1.79241
1.66765
1.54288
1.41817
1.29354
1.16903
1.0447
0.920557
0.796643
0.673011
0.549631
0.426658
0.3038
0.181854
0.0591419
5.31754
4.60281
4.30394
4.09967
3.91801
3.75155
3.59795
3.45316
3.31432
3.17983
3.04858
2.91972
2.79255
2.66652
2.54121
2.41632
2.29162
2.16697
2.04231
1.91759
1.79283
1.66804
1.54326
1.41853
1.29389
1.16938
1.04503
0.920882
0.796961
0.673324
0.549961
0.426989
0.304267
0.182088
0.0616978
5.34159
4.59057
4.30131
4.09808
3.9168
3.75069
3.59724
3.45251
3.31371
3.17926
3.04807
2.91926
2.79213
2.66614
2.54087
2.416
2.29132
2.1667
2.04205
1.91735
1.79259
1.66782
1.54305
1.41833
1.29369
1.16919
1.04485
0.920709
0.796794
0.673164
0.549803
0.426835
0.3041
0.181951
0.061212
5.38628
4.56751
4.29727
4.09529
3.91483
3.74929
3.59609
3.4515
3.31282
3.17848
3.04738
2.91865
2.79159
2.66566
2.54044
2.41562
2.29098
2.16639
2.04177
1.91709
1.79236
1.66759
1.54284
1.41813
1.29351
1.16902
1.04469
0.920558
0.796654
0.673033
0.549675
0.426705
0.303956
0.181808
0.0609424
5.37714
4.58429
4.29533
4.096
3.91456
3.74925
3.59643
3.45203
3.31346
3.17919
3.04812
2.91942
2.79238
2.66645
2.54122
2.41638
2.2917
2.16707
2.0424
1.91767
1.79289
1.66808
1.54327
1.41852
1.29386
1.16933
1.04497
0.920809
0.796875
0.673229
0.549845
0.426878
0.304003
0.182164
0.05818
5.53024
4.52255
4.28217
4.08755
3.90779
3.74482
3.59323
3.44953
3.31151
3.17771
3.04709
2.91879
2.79211
2.66646
2.54144
2.41672
2.29211
2.1675
2.04282
1.91805
1.79322
1.66836
1.54351
1.41871
1.29401
1.16945
1.04506
0.920875
0.796916
0.673244
0.549796
0.426827
0.303615
0.182406
0.0539532
5.53128
4.52208
4.28207
4.08743
3.90771
3.74476
3.5932
3.44951
3.3115
3.17772
3.04711
2.91881
2.79213
2.66648
2.54146
2.41674
2.29213
2.16751
2.04283
1.91806
1.79323
1.66837
1.54352
1.41872
1.29402
1.16945
1.04505
0.920874
0.796925
0.673275
0.549872
0.426931
0.303773
0.182514
0.0539343
5.22729
4.65648
4.31525
4.10627
3.92315
3.75452
3.59985
3.45464
3.31556
3.18093
3.04962
2.92074
2.79356
2.66755
2.54225
2.41737
2.29268
2.16803
2.04336
1.91863
1.79384
1.66902
1.54421
1.41945
1.29479
1.17025
1.04587
0.921701
0.797755
0.674091
0.55071
0.427717
0.305029
0.182846
0.0632165
5.29311
4.6177
4.30696
4.10149
3.91927
3.75225
3.59839
3.4535
3.3146
3.18006
3.04879
2.91991
2.79272
2.66668
2.54135
2.41644
2.29173
2.16707
2.04239
1.91766
1.79289
1.66809
1.5433
1.41856
1.29392
1.1694
1.04505
0.920903
0.796979
0.67334
0.549978
0.427007
0.304301
0.182114
0.0619762
5.45702
4.55032
4.28745
4.09166
3.91101
3.74695
3.59475
3.45064
3.31229
3.17822
3.04735
2.91884
2.79197
2.66618
2.54106
2.4163
2.29167
2.16707
2.04241
1.91768
1.79289
1.66806
1.54324
1.41848
1.29381
1.16927
1.0449
0.920735
0.796793
0.673138
0.549716
0.426742
0.303679
0.182144
0.0557675
5.49857
4.53299
4.28408
4.08882
3.90892
3.74543
3.59355
3.44969
3.31155
3.17766
3.04695
2.91857
2.79181
2.66612
2.54106
2.41634
2.29175
2.16716
2.0425
1.91777
1.79298
1.66814
1.54332
1.41854
1.29386
1.16931
1.04493
0.920762
0.796819
0.673172
0.549776
0.426829
0.303764
0.182326
0.0551075
5.48846
4.53412
4.28579
4.08914
3.90963
3.7457
3.59357
3.4496
3.31139
3.17742
3.04663
2.91816
2.79133
2.66558
2.54049
2.41576
2.29118
2.16662
2.04201
1.91732
1.79257
1.66778
1.543
1.41826
1.29361
1.16909
1.04473
0.920582
0.796655
0.67302
0.549642
0.426691
0.30375
0.182044
0.0569827
5.39692
4.56471
4.2955
4.0953
3.91445
3.74913
3.59612
3.45159
3.31293
3.17862
3.04754
2.91884
2.79181
2.66591
2.54071
2.41589
2.29126
2.16666
2.04203
1.91734
1.79259
1.66781
1.54304
1.41831
1.29367
1.16916
1.04482
0.920674
0.796752
0.673113
0.549729
0.426754
0.303905
0.181954
0.0593064
5.2703
4.63449
4.30904
4.10321
3.92047
3.7529
3.59884
3.45389
3.31499
3.18048
3.04926
2.92043
2.79328
2.66725
2.54194
2.41702
2.29229
2.16761
2.04291
1.91816
1.79336
1.66854
1.54373
1.41898
1.29432
1.16978
1.04542
0.92125
0.797309
0.673652
0.550272
0.427286
0.304559
0.182417
0.0617431
5.33218
4.60697
4.30074
4.09911
3.9169
3.75067
3.59739
3.45279
3.3141
3.17974
3.04862
2.91986
2.79276
2.66679
2.54151
2.41663
2.29193
2.16728
2.04259
1.91785
1.79306
1.66824
1.54343
1.41867
1.29401
1.16948
1.04511
0.920944
0.797005
0.673353
0.549969
0.426993
0.304171
0.182214
0.0592574
5.4999
4.5324
4.28414
4.08901
3.90901
3.74548
3.59358
3.44968
3.31152
3.17761
3.0469
2.91851
2.79175
2.66606
2.54101
2.4163
2.29171
2.16713
2.04248
1.91775
1.79296
1.66813
1.5433
1.41853
1.29385
1.1693
1.04493
0.920756
0.796807
0.673146
0.549716
0.426747
0.303634
0.182218
0.0551244
5.40197
4.56176
4.29545
4.09434
3.91407
3.74877
3.59572
3.45122
3.3126
3.17831
3.04725
2.91855
2.79152
2.66561
2.54041
2.4156
2.29097
2.16638
2.04176
1.91709
1.79236
1.6676
1.54284
1.41813
1.29351
1.16902
1.04468
0.920553
0.796647
0.673025
0.549666
0.426698
0.303928
0.181833
0.0604576
5.5055
4.5296
4.28378
4.08835
3.90869
3.7452
3.59334
3.4495
3.31139
3.17752
3.04682
2.91845
2.79169
2.66601
2.54096
2.41625
2.29167
2.16709
2.04245
1.91773
1.79295
1.66812
1.5433
1.41853
1.29386
1.16931
1.04493
0.920762
0.796821
0.673175
0.549781
0.426833
0.303789
0.182296
0.0554819
5.40915
4.55694
4.29631
4.09418
3.91414
3.74875
3.59563
3.45111
3.31249
3.17819
3.04712
2.91841
2.79138
2.66546
2.54025
2.41544
2.29081
2.16623
2.04162
1.91695
1.79223
1.66747
1.54273
1.41802
1.29341
1.16892
1.0446
0.920476
0.796582
0.672968
0.549611
0.426628
0.303882
0.18166
0.0614382
5.3428
4.61188
4.29856
4.09916
3.91637
3.75028
3.59721
3.45271
3.31412
3.17986
3.04883
2.92017
2.79316
2.66726
2.54204
2.41718
2.29249
2.16781
2.0431
1.91831
1.79347
1.66861
1.54375
1.41896
1.29426
1.16969
1.0453
0.921116
0.797161
0.673495
0.550094
0.427114
0.304211
0.18239
0.0574842
5.33954
4.58812
4.30244
4.09848
3.91717
3.75096
3.59741
3.45261
3.31376
3.17927
3.04805
2.91922
2.79209
2.66609
2.54081
2.41595
2.29127
2.16665
2.04201
1.91731
1.79256
1.66779
1.54302
1.41831
1.29368
1.16918
1.04484
0.9207
0.796787
0.673158
0.549798
0.426827
0.304102
0.1819
0.0616566
5.55792
4.52208
4.28216
4.08694
3.90791
3.74461
3.59287
3.44914
3.3111
3.17729
3.04663
2.91828
2.79155
2.66588
2.54085
2.41616
2.2916
2.16703
2.04241
1.9177
1.79292
1.66811
1.54329
1.41853
1.29385
1.1693
1.04493
0.920757
0.796816
0.673171
0.549782
0.426833
0.30381
0.18225
0.0558307
5.31662
4.60492
4.30386
4.09976
3.91799
3.75149
3.5979
3.45312
3.31429
3.1798
3.04856
2.91971
2.79255
2.66652
2.54122
2.41632
2.29162
2.16697
2.04231
1.91759
1.79282
1.66803
1.54325
1.41852
1.29388
1.16936
1.04502
0.920866
0.796944
0.673306
0.549941
0.42697
0.304241
0.182085
0.0614525
5.21735
4.6665
4.31593
4.10708
3.92382
3.75484
3.60006
3.45481
3.3157
3.18104
3.04972
2.92082
2.79363
2.6676
2.54229
2.4174
2.2927
2.16805
2.04339
1.91868
1.79392
1.66913
1.54435
1.41962
1.29497
1.17046
1.0461
0.921936
0.797994
0.674328
0.550937
0.427929
0.305208
0.183057
0.0623715
5.38253
4.56661
4.29839
4.09565
3.91518
3.74952
3.59624
3.4516
3.31289
3.17852
3.0474
2.91865
2.79158
2.66564
2.54041
2.41558
2.29094
2.16635
2.04173
1.91705
1.79232
1.66756
1.54281
1.41811
1.29349
1.169
1.04467
0.920544
0.796644
0.673026
0.549669
0.426692
0.303957
0.181738
0.0615242
5.33888
4.59523
4.30088
4.09828
3.91676
3.75068
3.59733
3.45266
3.31391
3.1795
3.04833
2.91953
2.79241
2.66642
2.54115
2.41628
2.29159
2.16695
2.04229
1.91758
1.79281
1.66802
1.54324
1.41851
1.29386
1.16935
1.045
0.920845
0.79692
0.673279
0.549908
0.426936
0.30417
0.182096
0.060575
5.55136
4.51671
4.2807
4.08626
3.90731
3.74424
3.59264
3.44898
3.31101
3.17724
3.04664
2.91833
2.79164
2.66599
2.54098
2.4163
2.29173
2.16716
2.04251
1.91779
1.793
1.66817
1.54334
1.41856
1.29388
1.16932
1.04494
0.920767
0.796823
0.673178
0.549786
0.426841
0.303781
0.1823
0.0552571
5.45586
4.55137
4.29436
4.09285
3.91325
3.74815
3.5952
3.45078
3.31223
3.17799
3.04696
2.91828
2.79127
2.66537
2.54017
2.41537
2.29075
2.16617
2.04156
1.91689
1.79217
1.66742
1.54267
1.41797
1.29336
1.16887
1.04455
0.920431
0.79654
0.672929
0.549572
0.426585
0.303831
0.181624
0.0613018
5.31976
4.6023
4.30395
4.09997
3.918
3.7515
3.59791
3.45311
3.31427
3.17979
3.04856
2.91972
2.79257
2.66656
2.54126
2.41637
2.29167
2.16703
2.04236
1.91764
1.79287
1.66808
1.54329
1.41856
1.29392
1.1694
1.04505
0.920896
0.796968
0.673324
0.549949
0.426973
0.30422
0.182087
0.0612005
5.44091
4.56849
4.28838
4.09304
3.91142
3.74734
3.59532
3.45136
3.31315
3.17917
3.04836
2.91985
2.79295
2.66711
2.5419
2.41704
2.29232
2.16761
2.04286
1.91805
1.79319
1.66831
1.54345
1.41864
1.29394
1.16938
1.04499
0.92081
0.79686
0.673204
0.549801
0.426852
0.303798
0.182363
0.0547427
5.27626
4.63867
4.30743
4.10321
3.92013
3.75259
3.59866
3.45377
3.31491
3.18044
3.04925
2.92045
2.79334
2.66736
2.54209
2.41721
2.29251
2.16785
2.04315
1.9184
1.7936
1.66877
1.54394
1.41917
1.29448
1.16992
1.04554
0.92135
0.797393
0.67372
0.550324
0.427328
0.30454
0.182488
0.0601198
5.40453
4.56006
4.29587
4.09424
3.91408
3.74873
3.59565
3.45114
3.31252
3.17823
3.04716
2.91847
2.79144
2.66553
2.54032
2.41551
2.29088
2.1663
2.04168
1.91701
1.79228
1.66753
1.54278
1.41807
1.29346
1.16896
1.04464
0.920511
0.796611
0.672993
0.549637
0.426664
0.303911
0.181755
0.0609169
5.42326
4.55501
4.29291
4.09306
3.91296
3.74798
3.59516
3.45079
3.31227
3.17805
3.04705
2.91841
2.79143
2.66555
2.54038
2.41559
2.29097
2.16639
2.04177
1.9171
1.79237
1.66761
1.54285
1.41813
1.29351
1.16901
1.04467
0.92054
0.796631
0.673007
0.549644
0.426681
0.303872
0.181877
0.0595626
5.27934
4.62869
4.30834
4.10303
3.9201
3.7527
3.59875
3.45382
3.31494
3.18045
3.04923
2.9204
2.79325
2.66723
2.54191
2.417
2.29227
2.16759
2.04289
1.91814
1.79335
1.66852
1.54371
1.41896
1.29429
1.16976
1.04539
0.92122
0.797276
0.673616
0.550227
0.427239
0.304485
0.182361
0.0613076
5.44355
4.54493
4.29215
4.0927
3.91261
3.7477
3.59492
3.45056
3.31206
3.17786
3.04689
2.91827
2.79131
2.66546
2.5403
2.41552
2.29091
2.16634
2.04173
1.91706
1.79233
1.66757
1.54281
1.41809
1.29347
1.16897
1.04463
0.920497
0.796587
0.67296
0.549584
0.426611
0.303761
0.181794
0.0592853
5.19253
4.67734
4.32
4.10862
3.92543
3.75586
3.60068
3.45527
3.31605
3.18132
3.04993
2.92099
2.79377
2.66771
2.54238
2.41748
2.29277
2.16813
2.04346
1.91875
1.79399
1.66921
1.54443
1.41971
1.29507
1.17057
1.04622
0.92208
0.798161
0.674518
0.551155
0.428168
0.305504
0.183367
0.0639155
5.46312
4.54244
4.28894
4.09077
3.91112
3.74669
3.59423
3.45008
3.31172
3.17764
3.04674
2.91819
2.79128
2.66546
2.54033
2.41557
2.29098
2.16641
2.0418
1.91713
1.7924
1.66763
1.54287
1.41815
1.29352
1.16902
1.04467
0.920535
0.79662
0.672993
0.549626
0.426669
0.303808
0.181926
0.0584544
5.5604
4.51248
4.28017
4.08596
3.90685
3.74401
3.59254
3.44896
3.31104
3.17734
3.04679
2.91855
2.79191
2.66631
2.54133
2.41665
2.29208
2.16749
2.04283
1.91808
1.79326
1.66841
1.54356
1.41877
1.29407
1.1695
1.04511
0.920919
0.796955
0.673284
0.549843
0.426883
0.303726
0.182429
0.0545652
5.43199
4.54836
4.29409
4.09312
3.91328
3.74813
3.59518
3.45075
3.3122
3.17796
3.04693
2.91826
2.79125
2.66536
2.54017
2.41537
2.29075
2.16617
2.04156
1.9169
1.79217
1.66742
1.54267
1.41797
1.29335
1.16886
1.04454
0.920415
0.796522
0.67291
0.54955
0.426568
0.303788
0.181632
0.0608207
5.58015
4.50852
4.27905
4.08527
3.9064
3.74372
3.59235
3.44883
3.31096
3.17729
3.04678
2.91856
2.79194
2.66636
2.54138
2.4167
2.29213
2.16753
2.04287
1.91811
1.79329
1.66843
1.54358
1.41878
1.29407
1.1695
1.04511
0.920919
0.796954
0.673282
0.549842
0.426887
0.303725
0.182451
0.0544273
5.4796
4.54267
4.28544
4.09
3.90967
3.74601
3.59406
3.45013
3.31192
3.17797
3.0472
2.91877
2.79197
2.66624
2.54115
2.41641
2.29179
2.16718
2.04251
1.91777
1.79297
1.66814
1.54331
1.41853
1.29385
1.1693
1.04492
0.920755
0.796812
0.673164
0.549766
0.42682
0.303758
0.182331
0.055032
5.4075
4.57462
4.29228
4.09501
3.9134
3.74858
3.59605
3.45179
3.31332
3.17913
3.04815
2.91951
2.79253
2.66664
2.54144
2.4166
2.29192
2.16727
2.04258
1.91783
1.79302
1.66818
1.54336
1.41859
1.29391
1.16937
1.045
0.920833
0.796891
0.673235
0.54982
0.42684
0.303837
0.182163
0.0566482
5.34315
4.61048
4.29856
4.09949
3.91653
3.75038
3.59728
3.45275
3.31413
3.17985
3.04882
2.92015
2.79314
2.66724
2.54203
2.41718
2.29249
2.16782
2.04311
1.91833
1.79349
1.66862
1.54377
1.41897
1.29427
1.1697
1.04531
0.921127
0.797169
0.673497
0.550078
0.427083
0.304142
0.182308
0.0574618
5.3936
4.56178
4.29751
4.09521
3.91478
3.74921
3.596
3.4514
3.31272
3.17838
3.04728
2.91856
2.79151
2.66558
2.54036
2.41554
2.29091
2.16632
2.04171
1.91703
1.7923
1.66755
1.5428
1.41809
1.29347
1.16898
1.04465
0.920527
0.796628
0.673009
0.549649
0.42667
0.303916
0.181729
0.061235
5.41515
4.55419
4.29522
4.09417
3.91386
3.74856
3.59552
3.45103
3.31243
3.17815
3.04711
2.91843
2.79142
2.66553
2.54034
2.41554
2.29092
2.16634
2.04173
1.91706
1.79233
1.66757
1.54282
1.41811
1.29349
1.169
1.04467
0.920536
0.796631
0.673009
0.549642
0.426665
0.30387
0.181776
0.0603969
5.40175
4.56619
4.29421
4.09495
3.91394
3.7488
3.59595
3.45149
3.3129
3.17862
3.04758
2.91891
2.79191
2.66602
2.54083
2.41602
2.29138
2.16678
2.04214
1.91744
1.79268
1.66788
1.5431
1.41836
1.29371
1.1692
1.04484
0.920693
0.796764
0.67312
0.549725
0.42675
0.303852
0.182
0.0583993
5.41072
4.56064
4.29367
4.09375
3.91339
3.74831
3.59544
3.45103
3.31248
3.17823
3.04722
2.91856
2.79156
2.66568
2.54049
2.41569
2.29107
2.16649
2.04187
1.91718
1.79245
1.66768
1.54292
1.4182
1.29357
1.16907
1.04473
0.920591
0.796678
0.67305
0.549683
0.42672
0.303904
0.181934
0.0594029
5.16087
4.68988
4.3261
4.11083
3.92759
3.75726
3.60155
3.45591
3.31655
3.1817
3.05023
2.92123
2.79396
2.66786
2.54251
2.41758
2.29287
2.16822
2.04355
1.91884
1.79409
1.66931
1.54454
1.41982
1.2952
1.1707
1.04636
0.922222
0.798311
0.674677
0.551329
0.428357
0.30576
0.183694
0.0665648
5.57173
4.50736
4.27922
4.0853
3.90631
3.74367
3.59233
3.44882
3.31096
3.17731
3.04681
2.91862
2.79201
2.66644
2.54146
2.41678
2.2922
2.1676
2.04292
1.91816
1.79332
1.66846
1.5436
1.41879
1.29409
1.16951
1.04512
0.920926
0.79696
0.673288
0.549848
0.426898
0.303711
0.182498
0.0541083
5.57428
4.50612
4.27894
4.08515
3.90624
3.74363
3.59232
3.44883
3.31099
3.17734
3.04685
2.91866
2.79206
2.66648
2.54151
2.41683
2.29224
2.16764
2.04296
1.91819
1.79336
1.66849
1.54363
1.41882
1.29411
1.16953
1.04513
0.92095
0.797003
0.673358
0.549953
0.426992
0.303792
0.182449
0.0540063
5.38659
4.57677
4.29488
4.09534
3.91426
3.74905
3.5962
3.45177
3.31319
3.17891
3.04785
2.91915
2.79212
2.66621
2.54099
2.41616
2.29151
2.16689
2.04224
1.91753
1.79276
1.66796
1.54317
1.41843
1.29378
1.16926
1.0449
0.920752
0.796823
0.673182
0.549802
0.426837
0.303977
0.182106
0.0585486
5.46026
4.54359
4.28979
4.09108
3.91152
3.74696
3.5944
3.4502
3.3118
3.17768
3.04675
2.91817
2.79123
2.66539
2.54024
2.41547
2.29087
2.1663
2.04169
1.91702
1.7923
1.66754
1.54278
1.41807
1.29345
1.16895
1.04461
0.92048
0.796572
0.67295
0.549589
0.426631
0.303803
0.181846
0.0591212
5.22564
4.6575
4.31591
4.10677
3.92336
3.75465
3.59996
3.45472
3.31561
3.18096
3.04964
2.92074
2.79356
2.66752
2.54222
2.41732
2.29263
2.16798
2.04331
1.91858
1.7938
1.66898
1.54417
1.41941
1.29474
1.1702
1.04582
0.921649
0.797699
0.674033
0.550646
0.427649
0.304951
0.182769
0.062981
5.37636
4.57802
4.29663
4.09596
3.91497
3.74951
3.59646
3.45192
3.31326
3.17892
3.04782
2.91908
2.79202
2.66609
2.54086
2.41603
2.29137
2.16676
2.04212
1.91742
1.79266
1.66788
1.5431
1.41837
1.29373
1.16922
1.04487
0.920724
0.796802
0.673166
0.549793
0.426825
0.304013
0.182038
0.0595156
5.36803
4.57295
4.2997
4.09663
3.91587
3.75004
3.59666
3.45195
3.31319
3.17878
3.04762
2.91884
2.79175
2.66579
2.54055
2.41571
2.29105
2.16645
2.04182
1.91714
1.79241
1.66764
1.54289
1.41818
1.29356
1.16906
1.04473
0.9206
0.796696
0.673073
0.549715
0.426739
0.304005
0.181797
0.0615193
5.30149
4.62441
4.30437
4.10189
3.91881
3.75181
3.59818
3.4534
3.31462
3.18022
3.04909
2.92034
2.79326
2.66731
2.54205
2.41717
2.29246
2.16779
2.04309
1.91833
1.79352
1.66867
1.54384
1.41906
1.29438
1.16982
1.04544
0.921257
0.797301
0.67363
0.550221
0.427224
0.304382
0.182383
0.0594098
5.45949
4.54579
4.2884
4.09114
3.91101
3.74674
3.5944
3.45028
3.31194
3.17788
3.04702
2.9185
2.79162
2.66584
2.54073
2.41598
2.29139
2.16681
2.04218
1.91749
1.79273
1.66794
1.54315
1.41841
1.29375
1.16923
1.04487
0.92071
0.796779
0.673138
0.549754
0.426798
0.303854
0.182156
0.0570612
5.45126
4.54728
4.29192
4.09191
3.91239
3.74756
3.5948
3.45049
3.31201
3.17783
3.04685
2.91821
2.79123
2.66536
2.54019
2.4154
2.29078
2.16621
2.0416
1.91693
1.79221
1.66746
1.54271
1.418
1.29339
1.1689
1.04457
0.920445
0.796547
0.672933
0.549578
0.42661
0.303828
0.181731
0.060296
5.24478
4.65448
4.31173
4.10537
3.92209
3.75376
3.5994
3.45431
3.31532
3.18075
3.04949
2.92065
2.7935
2.66749
2.5422
2.41732
2.29263
2.16799
2.04332
1.9186
1.79383
1.66903
1.54424
1.41949
1.29483
1.17028
1.0459
0.921717
0.797756
0.674074
0.55067
0.42766
0.304896
0.182782
0.0610029
5.25351
4.64277
4.3116
4.10445
3.92154
3.75355
3.59925
3.4542
3.31522
3.18066
3.0494
2.92053
2.79335
2.66731
2.54198
2.41705
2.2923
2.16761
2.0429
1.91815
1.79334
1.66852
1.54372
1.41896
1.2943
1.16977
1.04541
0.921243
0.797307
0.673654
0.550281
0.427299
0.304598
0.182433
0.0623273
5.29373
4.61964
4.30637
4.10144
3.91914
3.75213
3.59832
3.45346
3.3146
3.18011
3.04887
2.92001
2.79284
2.6668
2.54149
2.41657
2.29186
2.16719
2.04251
1.91778
1.793
1.6682
1.5434
1.41866
1.29401
1.16949
1.04513
0.920979
0.797049
0.673404
0.550035
0.427059
0.304334
0.18219
0.061553
5.41122
4.55833
4.29426
4.09359
3.91345
3.7483
3.59537
3.45093
3.31237
3.17812
3.04709
2.91842
2.79141
2.66552
2.54033
2.41553
2.29091
2.16632
2.04171
1.91703
1.7923
1.66754
1.54279
1.41808
1.29346
1.16897
1.04463
0.920505
0.7966
0.672979
0.549621
0.426656
0.303876
0.181811
0.0601632
5.53495
4.52221
4.28225
4.08713
3.90807
3.74471
3.59293