/*--------------------------------*- C++ -*----------------------------------*\
| =========                 |                                                 |
| \\      /  F ield         | OpenFOAM: The Open Source CFD Toolbox           |
|  \\    /   O peration     | Version:  2.4.x                                 |
|   \\  /    A nd           | Web:      www.OpenFOAM.org                      |
|    \\/     M anipulation  |                                                 |
\*---------------------------------------------------------------------------*/
FoamFile
{
    version     2.0;
    format      ascii;
    class       surfaceScalarField;
    location    "9960/coolant";
    object      phi;
}
// * * * * * * * * * * * * * * * * * * * * * * * * * * * * * * * * * * * * * //

dimensions      [1 0 -1 0 0 0 0];

internalField   nonuniform List<scalar> 
315644
(
6.31237e-05
1.01351e-05
-1.73788e-05
2.12953e-05
-1.74779e-05
6.47647e-05
4.87589e-06
-7.93482e-06
9.80223e-06
-8.38423e-06
6.59692e-05
3.73337e-06
-6.01263e-06
7.45892e-06
-6.38421e-06
6.68888e-05
3.1559e-06
-4.86536e-06
6.09458e-06
-5.30465e-06
6.7636e-05
2.64317e-06
-3.96844e-06
4.98939e-06
-4.41139e-06
6.82551e-05
2.34153e-06
-3.43187e-06
4.34485e-06
-3.87362e-06
6.8761e-05
2.148e-06
-3.06587e-06
3.92398e-06
-3.51195e-06
6.91567e-05
1.99394e-06
-2.76537e-06
3.59218e-06
-3.21651e-06
6.94427e-05
1.86227e-06
-2.50145e-06
3.3115e-06
-2.95833e-06
6.96221e-05
1.74445e-06
-2.26086e-06
3.06107e-06
-2.72397e-06
6.97037e-05
1.63397e-06
-2.03618e-06
2.82575e-06
-2.5052e-06
6.97035e-05
1.52775e-06
-1.82553e-06
2.59766e-06
-2.29963e-06
6.96419e-05
1.4253e-06
-1.6297e-06
2.37417e-06
-2.10817e-06
6.9541e-05
1.32751e-06
-1.45009e-06
2.15595e-06
-1.93254e-06
6.94213e-05
1.23568e-06
-1.2877e-06
1.94566e-06
-1.77396e-06
6.92993e-05
1.15081e-06
-1.14267e-06
1.74636e-06
-1.63251e-06
6.9187e-05
1.0734e-06
-1.01431e-06
1.5606e-06
-1.50737e-06
6.90922e-05
1.00337e-06
-9.01368e-07
1.38994e-06
-1.39715e-06
6.90195e-05
9.40206e-07
-8.02258e-07
1.23475e-06
-1.30001e-06
6.89711e-05
8.83244e-07
-7.15334e-07
1.09468e-06
-1.21414e-06
6.89473e-05
8.31801e-07
-6.39026e-07
9.68845e-07
-1.13783e-06
6.89474e-05
7.85259e-07
-5.71888e-07
8.56083e-07
-1.06959e-06
6.89701e-05
7.43032e-07
-5.1259e-07
7.55047e-07
-1.00812e-06
6.90133e-05
7.04552e-07
-4.59901e-07
6.64302e-07
-9.52233e-07
6.90752e-05
6.69268e-07
-4.12714e-07
5.82432e-07
-9.00905e-07
6.91538e-05
6.36494e-07
-3.70017e-07
5.08107e-07
-8.53098e-07
6.92468e-05
6.0557e-07
-3.30863e-07
4.4006e-07
-8.0786e-07
6.93525e-05
5.75824e-07
-2.94652e-07
3.77521e-07
-7.64364e-07
6.94687e-05
5.46527e-07
-2.60832e-07
3.19864e-07
-7.21727e-07
6.95933e-05
5.17837e-07
-2.29598e-07
2.6741e-07
-6.80236e-07
6.97241e-05
4.88728e-07
-2.0018e-07
2.19269e-07
-6.38645e-07
6.98598e-05
4.61013e-07
-1.73518e-07
1.76339e-07
-5.99485e-07
6.99966e-05
4.27174e-07
-1.4229e-07
1.29522e-07
-5.51239e-07
7.01423e-05
3.95855e-07
-1.08113e-07
7.57242e-08
-5.09102e-07
1.90688e-07
6.2632e-08
-1.26762e-07
-2.10507e-07
4.13527e-05
9.661e-06
-9.79709e-06
-2.17591e-05
2.01976e-05
4.18118e-05
3.01277e-06
-3.18638e-06
-9.43016e-06
9.14473e-06
4.18383e-05
2.15019e-06
-2.1994e-06
-6.74042e-06
6.76306e-06
4.15599e-05
1.39721e-06
-1.39218e-06
-4.98202e-06
5.25545e-06
4.1119e-05
9.43702e-07
-9.05213e-07
-3.71951e-06
4.12193e-06
4.05903e-05
6.6869e-07
-6.08448e-07
-2.892e-06
3.36037e-06
4.00395e-05
4.6025e-07
-3.95993e-07
-2.31404e-06
2.80061e-06
3.95142e-05
2.88363e-07
-2.3334e-07
-1.88536e-06
2.35567e-06
3.90419e-05
1.45315e-07
-1.07197e-07
-1.56669e-06
2.00083e-06
3.86348e-05
2.51833e-08
-7.22156e-09
-1.33141e-06
1.72057e-06
3.8295e-05
-7.69132e-08
7.43775e-08
-1.15852e-06
1.50088e-06
3.80191e-05
-1.64461e-07
1.42694e-07
-1.03271e-06
1.33039e-06
3.7801e-05
-2.40635e-07
2.01604e-07
-9.42476e-07
1.19956e-06
3.76341e-05
-3.07848e-07
2.53418e-07
-8.78929e-07
1.10031e-06
3.75116e-05
-3.67232e-07
2.99097e-07
-8.34938e-07
1.02557e-06
3.74274e-05
-4.19306e-07
3.39135e-07
-8.04748e-07
9.69117e-07
3.7376e-05
-4.64582e-07
3.73896e-07
-7.83963e-07
9.26057e-07
3.73524e-05
-5.03389e-07
4.03671e-07
-7.69083e-07
8.92374e-07
3.73523e-05
-5.36018e-07
4.28654e-07
-7.57478e-07
8.64943e-07
3.73719e-05
-5.62809e-07
4.49066e-07
-7.47236e-07
8.4141e-07
3.74078e-05
-5.84158e-07
4.65188e-07
-7.36994e-07
8.20034e-07
3.74572e-05
-6.00509e-07
4.77366e-07
-7.25873e-07
7.99611e-07
3.75176e-05
-6.12271e-07
4.85948e-07
-7.1339e-07
7.79356e-07
3.75867e-05
-6.19831e-07
4.91266e-07
-6.99356e-07
7.58795e-07
3.76627e-05
-6.236e-07
4.93657e-07
-6.83809e-07
7.3772e-07
3.77441e-05
-6.23893e-07
4.9335e-07
-6.66732e-07
7.15897e-07
3.78295e-05
-6.21052e-07
4.90627e-07
-6.48128e-07
6.93145e-07
3.79177e-05
-6.15226e-07
4.85634e-07
-6.27911e-07
6.69238e-07
3.80077e-05
-6.06523e-07
4.78507e-07
-6.05677e-07
6.43686e-07
3.80984e-05
-5.95355e-07
4.69768e-07
-5.82252e-07
6.17213e-07
3.81886e-05
-5.81598e-07
4.59227e-07
-5.56791e-07
5.88921e-07
3.82781e-05
-5.67104e-07
4.48503e-07
-5.33504e-07
5.62689e-07
3.83651e-05
-5.44649e-07
4.30662e-07
-4.98239e-07
5.25207e-07
3.84553e-05
-5.41037e-07
4.30365e-07
-4.89004e-07
5.09477e-07
-3.40504e-07
2.64269e-07
-1.74598e-07
2.02126e-07
8.40709e-06
1.04825e-05
-3.67634e-06
-6.90673e-06
3.43268e-06
6.96712e-06
3.1339e-06
-9.83409e-07
-1.63527e-06
9.24747e-07
6.1168e-06
1.57489e-06
-3.19614e-07
-7.0844e-07
3.03486e-07
5.67758e-06
8.3146e-07
-2.96876e-08
-3.45192e-07
-1.73619e-08
5.43776e-06
5.00201e-07
2.72306e-08
-2.00378e-07
-8.72302e-08
5.29761e-06
3.58857e-07
7.6811e-08
-1.51577e-07
-1.43947e-07
5.21343e-06
2.93676e-07
1.20501e-07
-1.34497e-07
-1.95503e-07
5.16278e-06
2.6233e-07
1.54482e-07
-1.2921e-07
-2.36945e-07
5.13285e-06
2.49884e-07
1.83607e-07
-1.30712e-07
-2.72848e-07
5.11597e-06
2.49976e-07
2.11366e-07
-1.37154e-07
-3.07313e-07
5.10713e-06
2.59068e-07
2.39394e-07
-1.47391e-07
-3.42227e-07
5.10272e-06
2.74471e-07
2.67467e-07
-1.60248e-07
-3.77279e-07
5.10003e-06
2.93435e-07
2.94237e-07
-1.7423e-07
-4.10751e-07
5.09698e-06
3.13108e-07
3.17778e-07
-1.87655e-07
-4.40182e-07
5.09208e-06
3.31031e-07
3.36348e-07
-1.99118e-07
-4.63362e-07
5.08438e-06
3.45508e-07
3.48992e-07
-2.07745e-07
-4.79051e-07
5.07338e-06
3.55643e-07
3.55555e-07
-2.13186e-07
-4.87016e-07
5.059e-06
3.61204e-07
3.56492e-07
-2.15503e-07
-4.87811e-07
5.04142e-06
3.62464e-07
3.52676e-07
-2.15044e-07
-4.8252e-07
5.02104e-06
3.59986e-07
3.45144e-07
-2.123e-07
-4.72445e-07
4.99833e-06
3.54454e-07
3.34916e-07
-2.07786e-07
-4.58875e-07
4.97382e-06
3.46582e-07
3.22925e-07
-2.02003e-07
-4.42994e-07
4.94802e-06
3.37021e-07
3.09943e-07
-1.95376e-07
-4.25785e-07
4.92139e-06
3.26317e-07
2.96556e-07
-1.88245e-07
-4.08001e-07
4.89434e-06
3.14952e-07
2.83204e-07
-1.80898e-07
-3.90211e-07
4.86721e-06
3.03363e-07
2.70236e-07
-1.73591e-07
-3.72874e-07
4.84024e-06
2.91843e-07
2.57808e-07
-1.66477e-07
-3.56211e-07
4.81361e-06
2.80733e-07
2.46102e-07
-1.59752e-07
-3.40459e-07
4.78747e-06
2.69924e-07
2.34995e-07
-1.53292e-07
-3.25487e-07
4.76192e-06
2.59422e-07
2.24532e-07
-1.47064e-07
-3.11322e-07
4.73719e-06
2.48032e-07
2.13928e-07
-1.40224e-07
-2.97e-07
4.71343e-06
2.37238e-07
2.05002e-07
-1.33851e-07
-2.8464e-07
4.69197e-06
2.1493e-07
1.85213e-07
-1.19357e-07
-2.59276e-07
4.66981e-06
2.20264e-07
1.92667e-07
-1.24789e-07
-2.66046e-07
6.86186e-08
1.63119e-10
-1.60411e-08
-3.7011e-08
1.66052e-05
1.67385e-05
8.11954e-06
-1.26971e-05
-1.09851e-05
1.57608e-05
6.06222e-06
2.78039e-06
-4.29543e-06
-3.70277e-06
1.48869e-05
3.67465e-06
1.64195e-06
-2.3872e-06
-2.05549e-06
1.41823e-05
2.25288e-06
9.06127e-07
-1.36437e-06
-1.09008e-06
1.36625e-05
1.41512e-06
5.12767e-07
-8.08445e-07
-5.9964e-07
1.32839e-05
9.48633e-07
3.02778e-07
-5.20921e-07
-3.51913e-07
1.30091e-05
6.71135e-07
1.77202e-07
-3.6095e-07
-2.12576e-07
1.28104e-05
4.91791e-07
9.60745e-08
-2.62448e-07
-1.26681e-07
1.26672e-05
3.73414e-07
4.2004e-08
-2.00321e-07
-7.18904e-08
1.2565e-05
2.94661e-07
4.37761e-09
-1.6119e-07
-3.57007e-08
1.24938e-05
2.41871e-07
-2.35028e-08
-1.36748e-07
-1.04062e-08
1.24463e-05
2.06649e-07
-4.55345e-08
-1.22018e-07
8.41165e-09
1.24175e-05
1.83516e-07
-6.38756e-08
-1.13898e-07
2.3084e-08
1.24037e-05
1.68707e-07
-7.97257e-08
-1.10202e-07
3.50356e-08
1.2402e-05
1.59563e-07
-9.36517e-08
-1.09343e-07
4.50483e-08
1.24104e-05
1.54138e-07
-1.05848e-07
-1.10149e-07
5.35055e-08
1.24269e-05
1.5102e-07
-1.16424e-07
-1.11771e-07
6.06738e-08
1.24501e-05
1.49227e-07
-1.25455e-07
-1.13645e-07
6.67182e-08
1.24786e-05
1.48042e-07
-1.32992e-07
-1.15369e-07
7.17432e-08
1.25116e-05
1.46967e-07
-1.39089e-07
-1.16676e-07
7.5828e-08
1.25481e-05
1.45662e-07
-1.43819e-07
-1.17395e-07
7.90443e-08
1.25874e-05
1.43941e-07
-1.47296e-07
-1.17455e-07
8.14834e-08
1.2629e-05
1.4173e-07
-1.49646e-07
-1.16858e-07
8.32339e-08
1.26722e-05
1.39024e-07
-1.50972e-07
-1.15646e-07
8.43544e-08
1.27167e-05
1.35895e-07
-1.51368e-07
-1.13915e-07
8.48844e-08
1.27621e-05
1.32344e-07
-1.50872e-07
-1.11704e-07
8.48353e-08
1.28081e-05
1.28355e-07
-1.49618e-07
-1.09054e-07
8.43274e-08
1.28544e-05
1.23831e-07
-1.47743e-07
-1.05937e-07
8.35123e-08
1.29009e-05
1.18416e-07
-1.4543e-07
-1.02094e-07
8.26307e-08
1.29473e-05
1.12418e-07
-1.43093e-07
-9.77818e-08
8.20158e-08
1.29935e-05
1.05315e-07
-1.40504e-07
-9.24832e-08
8.15082e-08
1.30393e-05
9.91727e-08
-1.38157e-07
-8.78889e-08
8.11008e-08
1.30834e-05
8.85201e-08
-1.32401e-07
-7.89686e-08
7.87135e-08
1.31299e-05
8.82546e-08
-1.34496e-07
-8.08903e-08
8.0686e-08
-4.68456e-08
-7.48563e-08
3.53059e-08
6.07853e-08
8.29192e-06
-3.67002e-06
2.54192e-06
-7.41529e-06
1.21453e-05
6.82184e-06
-8.38036e-07
4.99318e-07
-1.81246e-06
3.62125e-06
5.97978e-06
-3.57818e-07
2.29717e-07
-6.8772e-07
1.65789e-06
5.54464e-06
-9.68776e-08
1.59192e-08
-3.16733e-07
8.32824e-07
5.30767e-06
-5.90299e-08
-1.61032e-09
-1.43944e-07
4.41557e-07
5.16883e-06
-2.4662e-08
-2.70798e-08
-8.79001e-08
2.78478e-07
5.08433e-06
1.2274e-08
-6.32736e-08
-7.35974e-08
2.09097e-07
5.03268e-06
4.25338e-08
-9.62914e-08
-7.21095e-08
1.77516e-07
5.00215e-06
6.89403e-08
-1.27249e-07
-7.79374e-08
1.66782e-07
4.98575e-06
9.36814e-08
-1.57575e-07
-8.83386e-08
1.68631e-07
4.97925e-06
1.17502e-07
-1.87759e-07
-1.01528e-07
1.78286e-07
4.97997e-06
1.40867e-07
-2.18092e-07
-1.1653e-07
1.93038e-07
4.98611e-06
1.63682e-07
-2.48255e-07
-1.32443e-07
2.10875e-07
4.99638e-06
1.85464e-07
-2.77447e-07
-1.48348e-07
2.30059e-07
5.00978e-06
2.05536e-07
-3.04609e-07
-1.63346e-07
2.49022e-07
5.02545e-06
2.23249e-07
-3.28717e-07
-1.76691e-07
2.66483e-07
5.04267e-06
2.38126e-07
-3.48991e-07
-1.87861e-07
2.81508e-07
5.06077e-06
2.49937e-07
-3.65002e-07
-1.96594e-07
2.93556e-07
5.0792e-06
2.58614e-07
-3.76598e-07
-2.02816e-07
3.02372e-07
5.09748e-06
2.64259e-07
-3.83888e-07
-2.06609e-07
3.07955e-07
5.11525e-06
2.67095e-07
-3.87175e-07
-2.08163e-07
3.10473e-07
5.13223e-06
2.67398e-07
-3.8686e-07
-2.07727e-07
3.10213e-07
5.14822e-06
2.65502e-07
-3.83439e-07
-2.05605e-07
3.07549e-07
5.16312e-06
2.61756e-07
-3.77429e-07
-2.02098e-07
3.02874e-07
5.17687e-06
2.56499e-07
-3.69338e-07
-1.97505e-07
2.96594e-07
5.18947e-06
2.50043e-07
-3.59638e-07
-1.92103e-07
2.8909e-07
5.20096e-06
2.42611e-07
-3.48679e-07
-1.86093e-07
2.80658e-07
5.2114e-06
2.34507e-07
-3.3688e-07
-1.79733e-07
2.71667e-07
5.22086e-06
2.25912e-07
-3.24476e-07
-1.73092e-07
2.62186e-07
5.22945e-06
2.17303e-07
-3.12031e-07
-1.66473e-07
2.52621e-07
5.23737e-06
2.08453e-07
-2.9923e-07
-1.59411e-07
2.42283e-07
5.24485e-06
2.01201e-07
-2.88339e-07
-1.53506e-07
2.3318e-07
5.25202e-06
1.83319e-07
-2.64612e-07
-1.38306e-07
2.12475e-07
5.25817e-06
1.9057e-07
-2.70748e-07
-1.45684e-07
2.19663e-07
-4.11354e-08
7.71798e-09
3.49065e-08
-3.09367e-09
4.58921e-05
-1.23272e-05
-2.0843e-05
1.24874e-05
1.87418e-05
4.64432e-05
-4.93426e-06
-8.66872e-06
4.97211e-06
8.07971e-06
4.65482e-05
-3.56617e-06
-6.09376e-06
3.66568e-06
5.88922e-06
4.63166e-05
-2.63498e-06
-4.34502e-06
2.75976e-06
4.4519e-06
4.58955e-05
-1.96494e-06
-3.13658e-06
2.10566e-06
3.41698e-06
4.53581e-05
-1.52445e-06
-2.35866e-06
1.68084e-06
2.7396e-06
4.47749e-05
-1.20659e-06
-1.81428e-06
1.36651e-06
2.23764e-06
4.42018e-05
-9.60502e-07
-1.40715e-06
1.1108e-06
1.82988e-06
4.3675e-05
-7.70439e-07
-1.10161e-06
9.02234e-07
1.49663e-06
4.32128e-05
-6.25115e-07
-8.73188e-07
7.33809e-07
1.2267e-06
4.28213e-05
-5.14369e-07
-7.01923e-07
5.98357e-07
1.00941e-06
4.24993e-05
-4.30213e-07
-5.73024e-07
4.89707e-07
8.35526e-07
4.22418e-05
-3.66267e-07
-4.75634e-07
4.02519e-07
6.96937e-07
4.20421e-05
-3.17595e-07
-4.01537e-07
3.32375e-07
5.8646e-07
4.18933e-05
-2.80402e-07
-3.44678e-07
2.75717e-07
4.98134e-07
4.17888e-05
-2.5168e-07
-3.00618e-07
2.29619e-07
4.27162e-07
4.17225e-05
-2.29184e-07
-2.65984e-07
1.91814e-07
3.69642e-07
4.1689e-05
-2.11241e-07
-2.38272e-07
1.60571e-07
3.22485e-07
4.16834e-05
-1.96548e-07
-2.15653e-07
1.34447e-07
2.83348e-07
4.17015e-05
-1.84107e-07
-1.96826e-07
1.12281e-07
2.50511e-07
4.17397e-05
-1.73185e-07
-1.80875e-07
9.3212e-08
2.22677e-07
4.17947e-05
-1.63299e-07
-1.67132e-07
7.66023e-08
1.98844e-07
4.18637e-05
-1.54141e-07
-1.55077e-07
6.19883e-08
1.78211e-07
4.19444e-05
-1.45508e-07
-1.44315e-07
4.90246e-08
1.60136e-07
4.20346e-05
-1.37292e-07
-1.34531e-07
3.74572e-08
1.44078e-07
4.21329e-05
-1.29298e-07
-1.25444e-07
2.69728e-08
1.29559e-07
4.22375e-05
-1.21381e-07
-1.16698e-07
1.73242e-08
1.16082e-07
4.23473e-05
-1.13316e-07
-1.08107e-07
8.25015e-09
1.03384e-07
4.24609e-05
-1.04754e-07
-9.93362e-08
-5.86626e-10
9.1118e-08
4.25769e-05
-9.61394e-08
-9.04906e-08
-8.80841e-09
7.9427e-08
4.26941e-05
-8.69645e-08
-8.11914e-08
-1.68871e-08
6.78738e-08
4.2812e-05
-7.9144e-08
-7.25917e-08
-2.35263e-08
5.73385e-08
4.29286e-05
-6.84727e-08
-5.89989e-08
-3.15126e-08
4.23621e-08
4.30518e-05
-6.16111e-08
-4.70337e-08
-4.10454e-08
2.64993e-08
3.85663e-08
1.02831e-07
-1.00178e-07
-1.09519e-07
0.000313226
-1.94233e-05
-9.82666e-06
1.39773e-05
0.000321411
-1.18251e-05
-5.09291e-06
8.73293e-06
0.000327622
-8.77552e-06
-3.75096e-06
6.31549e-06
0.00033309
-7.76375e-06
-3.25831e-06
5.55472e-06
0.000337711
-6.67473e-06
-2.7062e-06
4.75967e-06
0.000341836
-6.00015e-06
-2.38166e-06
4.25668e-06
0.000345672
-5.60662e-06
-2.19179e-06
3.96264e-06
0.000349295
-5.32315e-06
-2.05149e-06
3.75105e-06
0.000352758
-5.11107e-06
-1.94329e-06
3.59211e-06
0.000356097
-4.95361e-06
-1.8593e-06
3.47319e-06
0.000359342
-4.83553e-06
-1.79213e-06
3.38285e-06
0.000362512
-4.74692e-06
-1.737e-06
3.31373e-06
0.000365623
-4.68099e-06
-1.69087e-06
3.26089e-06
0.000368687
-4.63209e-06
-1.65148e-06
3.22037e-06
0.00037171
-4.59518e-06
-1.61713e-06
3.18883e-06
0.000374699
-4.56583e-06
-1.5865e-06
3.16343e-06
0.000377656
-4.54029e-06
-1.55856e-06
3.14187e-06
0.000380581
-4.51558e-06
-1.53236e-06
3.12237e-06
0.000383474
-4.48946e-06
-1.5069e-06
3.10355e-06
0.000386331
-4.46046e-06
-1.48102e-06
3.08445e-06
0.000389148
-4.42772e-06
-1.4534e-06
3.06446e-06
0.000391918
-4.39091e-06
-1.42258e-06
3.04327e-06
0.000394634
-4.34999e-06
-1.38702e-06
3.0208e-06
0.000397288
-4.30492e-06
-1.34531e-06
2.9971e-06
0.000399867
-4.25556e-06
-1.29623e-06
2.97232e-06
0.000402361
-4.20149e-06
-1.23879e-06
2.94652e-06
0.000404755
-4.14179e-06
-1.17243e-06
2.9196e-06
0.000407036
-4.07549e-06
-1.09707e-06
2.89139e-06
0.000409189
-4.00093e-06
-1.01305e-06
2.86122e-06
0.0004112
-3.9171e-06
-9.22047e-07
2.82868e-06
0.000413054
-3.82116e-06
-8.25137e-07
2.79176e-06
0.000414744
-3.71436e-06
-7.25651e-07
2.75024e-06
0.000416252
-3.57457e-06
-6.19888e-07
2.68682e-06
0.000417568
-3.40661e-06
-4.96544e-07
2.58696e-06
-2.31929e-06
-1.59083e-07
1.683e-06
3.71627e-05
2.07367e-05
-2.09607e-05
-1.40539e-05
1.31763e-05
3.7222e-05
9.48952e-06
-9.23968e-06
-4.42886e-06
4.11969e-06
3.68544e-05
6.92935e-06
-6.43961e-06
-3.00845e-06
2.88636e-06
3.625e-05
5.22307e-06
-4.60297e-06
-1.84375e-06
1.82809e-06
3.55778e-05
3.96951e-06
-3.32646e-06
-1.17651e-06
1.20561e-06
3.4916e-05
3.13346e-06
-2.51689e-06
-7.78022e-07
8.23222e-07
3.43138e-05
2.53581e-06
-1.97681e-06
-4.95153e-07
5.38392e-07
3.37947e-05
2.08539e-06
-1.59853e-06
-2.79823e-07
3.12082e-07
3.33626e-05
1.74747e-06
-1.33326e-06
-1.12593e-07
1.30429e-07
3.30117e-05
1.49698e-06
-1.14862e-06
1.99567e-08
-1.73598e-08
3.27322e-05
1.31347e-06
-1.02178e-06
1.27692e-07
-1.39938e-07
3.25141e-05
1.18135e-06
-9.37131e-07
2.17698e-07
-2.43845e-07
3.23485e-05
1.08855e-06
-8.83517e-07
2.94764e-07
-3.34135e-07
3.22274e-05
1.02481e-06
-8.5204e-07
3.62193e-07
-4.13899e-07
3.21441e-05
9.82122e-07
-8.35754e-07
4.21686e-07
-4.84776e-07
3.20926e-05
9.54329e-07
-8.29281e-07
4.73916e-07
-5.47414e-07
3.20674e-05
9.36331e-07
-8.28355e-07
5.19193e-07
-6.01997e-07
3.2064e-05
9.24105e-07
-8.2975e-07
5.57709e-07
-6.48622e-07
3.20782e-05
9.14596e-07
-8.31063e-07
5.89644e-07
-6.87404e-07
3.21066e-05
9.05679e-07
-8.30699e-07
6.15236e-07
-7.18573e-07
3.2146e-05
8.95887e-07
-8.27665e-07
6.34874e-07
-7.42507e-07
3.21938e-05
8.8425e-07
-8.21411e-07
6.48951e-07
-7.59581e-07
3.22476e-05
8.70296e-07
-8.11816e-07
6.57842e-07
-7.70198e-07
3.23057e-05
8.53911e-07
-7.99036e-07
6.61967e-07
-7.74861e-07
3.23662e-05
8.35269e-07
-7.83457e-07
6.61746e-07
-7.74118e-07
3.2428e-05
8.14677e-07
-7.65546e-07
6.57608e-07
-7.68572e-07
3.24902e-05
7.92423e-07
-7.45708e-07
6.49973e-07
-7.58819e-07
3.25518e-05
7.6887e-07
-7.2441e-07
6.3935e-07
-7.45497e-07
3.26125e-05
7.43803e-07
-7.01551e-07
6.26293e-07
-7.29269e-07
3.26718e-05
7.17704e-07
-6.77632e-07
6.11426e-07
-7.10777e-07
3.27294e-05
6.89476e-07
-6.51571e-07
5.95222e-07
-6.90633e-07
3.2785e-05
6.62419e-07
-6.26666e-07
5.78887e-07
-6.70239e-07
3.28376e-05
6.21566e-07
-5.86909e-07
5.51713e-07
-6.38914e-07
3.28907e-05
6.10647e-07
-5.81144e-07
5.45017e-07
-6.27633e-07
2.89371e-07
-2.56865e-07
2.77473e-07
-3.36958e-07
0.000229458
-2.7718e-05
1.6472e-05
-1.30011e-05
1.22376e-05
0.000235203
-1.48464e-05
7.68446e-06
-5.69839e-06
7.11526e-06
0.000239826
-1.12253e-05
5.85098e-06
-4.44473e-06
5.19575e-06
0.000243766
-9.64206e-06
5.01327e-06
-3.79078e-06
4.47941e-06
0.000247089
-8.13352e-06
4.11136e-06
-3.10495e-06
3.80495e-06
0.000250058
-7.23871e-06
3.59902e-06
-2.72213e-06
3.39263e-06
0.000252807
-6.69464e-06
3.29483e-06
-2.49306e-06
3.14365e-06
0.000255389
-6.29194e-06
3.06764e-06
-2.31965e-06
2.96196e-06
0.000257837
-5.98e-06
2.89115e-06
-2.18264e-06
2.82367e-06
0.000260172
-5.73363e-06
2.75259e-06
-2.07222e-06
2.71761e-06
0.000262408
-5.531e-06
2.64e-06
-1.979e-06
2.63448e-06
0.000264548
-5.35697e-06
2.54541e-06
-1.89652e-06
2.56826e-06
0.00026659
-5.20023e-06
2.46341e-06
-1.82029e-06
2.51472e-06
0.000268528
-5.05116e-06
2.38966e-06
-1.7466e-06
2.47028e-06
0.00027035
-4.90174e-06
2.32045e-06
-1.67225e-06
2.43162e-06
0.000272042
-4.7459e-06
2.25257e-06
-1.59452e-06
2.39563e-06
0.000273591
-4.57996e-06
2.18309e-06
-1.51125e-06
2.35947e-06
0.000274985
-4.40275e-06
2.10933e-06
-1.42121e-06
2.32062e-06
0.000276218
-4.21526e-06
2.02888e-06
-1.32432e-06
2.27699e-06
0.000277294
-4.02021e-06
1.93969e-06
-1.22177e-06
2.22704e-06
0.00027822
-3.82129e-06
1.84033e-06
-1.11577e-06
2.16991e-06
0.000279016
-3.62235e-06
1.7302e-06
-1.00898e-06
2.10544e-06
0.000279703
-3.42674e-06
1.60957e-06
-9.03991e-07
2.03408e-06
0.000280306
-3.23697e-06
1.47968e-06
-8.02752e-07
1.95687e-06
0.00028085
-3.05454e-06
1.34259e-06
-7.06517e-07
1.87516e-06
0.000281354
-2.87997e-06
1.20073e-06
-6.15846e-07
1.7904e-06
0.000281837
-2.71318e-06
1.05681e-06
-5.30698e-07
1.70395e-06
0.000282312
-2.55409e-06
9.13447e-07
-4.50672e-07
1.61724e-06
0.000282784
-2.4017e-06
7.72779e-07
-3.75305e-07
1.53122e-06
0.000283261
-2.25626e-06
6.3796e-07
-3.05282e-07
1.44697e-06
0.000283742
-2.11541e-06
5.09556e-07
-2.39549e-07
1.36441e-06
0.000284228
-1.98184e-06
3.90745e-07
-1.79639e-07
1.28478e-06
0.000284709
-1.83313e-06
2.74353e-07
-1.19475e-07
1.1972e-06
0.000285194
-1.68367e-06
1.39978e-07
-4.52428e-08
1.10463e-06
-9.3674e-07
-1.33528e-07
1.13165e-07
6.30811e-07
7.67309e-06
1.25208e-05
-1.20437e-07
-3.28138e-06
-8.35495e-06
7.16666e-06
4.26871e-06
-1.56073e-07
-9.77325e-07
-2.62888e-06
6.67252e-06
2.54049e-06
-1.72744e-07
-4.66908e-07
-1.4067e-06
6.31784e-06
1.42054e-06
-1.89474e-07
-1.64476e-07
-7.11918e-07
6.07335e-06
8.60499e-07
-1.76113e-07
-4.2078e-08
-3.97818e-07
5.90401e-06
5.46511e-07
-1.79328e-07
3.34331e-08
-2.31278e-07
5.78601e-06
3.53759e-07
-1.90985e-07
8.715e-08
-1.31924e-07
5.70311e-06
2.31973e-07
-2.05346e-07
1.26391e-07
-7.01103e-08
5.64416e-06
1.5338e-07
-2.21552e-07
1.57461e-07
-3.03476e-08
5.60137e-06
1.02486e-07
-2.39106e-07
1.837e-07
-4.28923e-09
5.56901e-06
7.08701e-08
-2.57348e-07
2.0649e-07
1.23544e-08
5.54282e-06
5.36497e-08
-2.75792e-07
2.26431e-07
2.18971e-08
5.51947e-06
4.74621e-08
-2.9324e-07
2.43198e-07
2.59311e-08
5.49653e-06
4.92736e-08
-3.08047e-07
2.55983e-07
2.57293e-08
5.47241e-06
5.63595e-08
-3.18992e-07
2.64259e-07
2.24879e-08
5.44622e-06
6.63882e-08
-3.25438e-07
2.67943e-07
1.7299e-08
5.41758e-06
7.75036e-08
-3.27385e-07
2.67419e-07
1.10994e-08
5.38651e-06
8.83428e-08
-3.25302e-07
2.63391e-07
4.6401e-09
5.35326e-06
9.80046e-08
-3.19909e-07
2.5669e-07
-1.52882e-09
5.31823e-06
1.05981e-07
-3.11995e-07
2.48117e-07
-7.07896e-09
5.28193e-06
1.12085e-07
-3.0234e-07
2.38397e-07
-1.18423e-08
5.24482e-06
1.1637e-07
-2.91623e-07
2.28126e-07
-1.5758e-08
5.2073e-06
1.18992e-07
-2.80373e-07
2.17738e-07
-1.88439e-08
5.16976e-06
1.20115e-07
-2.68974e-07
2.0754e-07
-2.11401e-08
5.1325e-06
1.19964e-07
-2.57704e-07
1.97731e-07
-2.27265e-08
5.09576e-06
1.18758e-07
-2.4673e-07
1.88409e-07
-2.37001e-08
5.05973e-06
1.1679e-07
-2.36144e-07
1.79592e-07
-2.42141e-08
5.02455e-06
1.14336e-07
-2.25899e-07
1.71187e-07
-2.44465e-08
4.99033e-06
1.11626e-07
-2.15989e-07
1.63132e-07
-2.45639e-08
4.95711e-06
1.09016e-07
-2.06455e-07
1.55431e-07
-2.47681e-08
4.92505e-06
1.06029e-07
-1.96912e-07
1.4781e-07
-2.48738e-08
4.89395e-06
1.03468e-07
-1.89213e-07
1.41794e-07
-2.49232e-08
4.86516e-06
9.61245e-08
-1.75051e-07
1.30947e-07
-2.31891e-08
4.83468e-06
9.92415e-08
-1.79212e-07
1.34363e-07
-2.39308e-08
8.78863e-08
-7.17961e-08
3.77942e-08
-3.51405e-08
1.15129e-05
-7.15034e-06
1.45897e-05
1.03349e-07
-6.52525e-06
1.07895e-05
-2.25951e-06
5.0204e-06
-1.72665e-07
-1.86485e-06
1.00843e-05
-1.24843e-06
3.04474e-06
-2.32147e-07
-8.58981e-07
9.56612e-06
-6.82497e-07
1.75818e-06
-2.60578e-07
-2.96936e-07
9.20413e-06
-4.16252e-07
1.09552e-06
-2.41788e-07
-7.54899e-08
8.94999e-06
-2.79701e-07
7.18266e-07
-2.41479e-07
5.70514e-08
8.77014e-06
-2.02776e-07
4.8582e-07
-2.51208e-07
1.48015e-07
8.64197e-06
-1.57444e-07
3.3779e-07
-2.63554e-07
2.11381e-07
8.54963e-06
-1.30843e-07
2.41813e-07
-2.77656e-07
2.59028e-07
8.48186e-06
-1.16124e-07
1.79378e-07
-2.92969e-07
2.97482e-07
8.43028e-06
-1.09572e-07
1.4064e-07
-3.09114e-07
3.29631e-07
8.38836e-06
-1.0925e-07
1.20157e-07
-3.25746e-07
3.56761e-07
8.35118e-06
-1.13419e-07
1.13561e-07
-3.41857e-07
3.78895e-07
8.31511e-06
-1.20235e-07
1.16909e-07
-3.55763e-07
3.95149e-07
8.27771e-06
-1.28055e-07
1.26651e-07
-3.66041e-07
4.0485e-07
8.23751e-06
-1.35645e-07
1.39785e-07
-3.71992e-07
4.08055e-07
8.19386e-06
-1.42174e-07
1.53928e-07
-3.73562e-07
4.0545e-07
8.14674e-06
-1.47171e-07
1.67357e-07
-3.71168e-07
3.98102e-07
8.0965e-06
-1.50456e-07
1.78959e-07
-3.65481e-07
3.87223e-07
8.04371e-06
-1.52054e-07
1.88139e-07
-3.57248e-07
3.73953e-07
7.98905e-06
-1.5211e-07
1.94682e-07
-3.47167e-07
3.59255e-07
7.9332e-06
-1.50852e-07
1.98666e-07
-3.35868e-07
3.43902e-07
7.8768e-06
-1.48532e-07
2.00335e-07
-3.23866e-07
3.28466e-07
7.82039e-06
-1.45393e-07
2.00025e-07
-3.11553e-07
3.1333e-07
7.76441e-06
-1.41694e-07
1.9817e-07
-2.9925e-07
2.98747e-07
7.70923e-06
-1.37732e-07
1.95254e-07
-2.87298e-07
2.84956e-07
7.65513e-06
-1.33701e-07
1.91635e-07
-2.75871e-07
2.72028e-07
7.60235e-06
-1.29759e-07
1.87636e-07
-2.65128e-07
2.60042e-07
7.55106e-06
-1.25733e-07
1.83049e-07
-2.54943e-07
2.48912e-07
7.50136e-06
-1.21199e-07
1.77395e-07
-2.44885e-07
2.38397e-07
7.45343e-06
-1.15413e-07
1.69592e-07
-2.34142e-07
2.279e-07
7.40693e-06
-1.08654e-07
1.60162e-07
-2.23374e-07
2.18349e-07
7.36362e-06
-9.69312e-08
1.44028e-07
-2.04156e-07
2.00402e-07
7.31804e-06
-9.77721e-08
1.46361e-07
-2.03579e-07
2.0052e-07
-5.76153e-08
1.17954e-07
-8.29053e-08
5.09571e-08
1.38967e-05
-9.05555e-06
-6.71536e-06
8.29885e-06
9.30828e-06
1.2747e-05
-2.64458e-06
-2.24622e-06
3.06084e-06
2.97965e-06
1.17519e-05
-1.23287e-06
-1.3422e-06
1.92323e-06
1.64694e-06
1.10654e-05
-5.15886e-07
-8.34527e-07
1.24225e-06
7.94662e-07
1.06105e-05
-2.39819e-07
-5.67743e-07
8.61798e-07
4.00678e-07
1.03064e-05
-9.73235e-08
-4.52301e-07
6.82095e-07
1.71652e-07
1.01016e-05
-1.04044e-08
-4.04167e-07
5.98537e-07
2.08298e-08
9.96237e-06
4.51625e-08
-3.87651e-07
5.6293e-07
-8.11988e-08
9.86652e-06
8.32716e-08
-3.8991e-07
5.55976e-07
-1.53492e-07
9.79948e-06
1.11607e-07
-4.04625e-07
5.67993e-07
-2.07932e-07
9.75088e-06
1.33995e-07
-4.27862e-07
5.93281e-07
-2.50821e-07
9.71317e-06
1.5191e-07
-4.56876e-07
6.27616e-07
-2.84931e-07
9.68063e-06
1.65577e-07
-4.88169e-07
6.66112e-07
-3.10985e-07
9.64908e-06
1.74922e-07
-5.17824e-07
7.03606e-07
-3.29157e-07
9.61567e-06
1.79945e-07
-5.42601e-07
7.35684e-07
-3.39615e-07
9.57866e-06
1.80946e-07
-5.6043e-07
7.59414e-07
-3.4292e-07
9.53723e-06
1.78519e-07
-5.70554e-07
7.73544e-07
-3.40078e-07
9.49125e-06
1.73431e-07
-5.73247e-07
7.78173e-07
-3.32376e-07
9.44106e-06
1.66487e-07
-5.6942e-07
7.74276e-07
-3.21159e-07
9.38731e-06
1.58419e-07
-5.60292e-07
7.63296e-07
-3.07671e-07
9.33077e-06
1.49836e-07
-5.47175e-07
7.46847e-07
-2.92972e-07
9.27226e-06
1.41201e-07
-5.31288e-07
7.26488e-07
-2.77887e-07
9.21253e-06
1.3284e-07
-5.13643e-07
7.0355e-07
-2.63015e-07
9.15227e-06
1.24957e-07
-4.95011e-07
6.79071e-07
-2.4876e-07
9.09208e-06
1.17661e-07
-4.75995e-07
6.53889e-07
-2.35358e-07
9.03244e-06
1.10985e-07
-4.56987e-07
6.28544e-07
-2.2291e-07
8.97374e-06
1.04875e-07
-4.38295e-07
6.03478e-07
-2.1137e-07
8.91627e-06
9.92015e-08
-4.20043e-07
5.78866e-07
-2.00556e-07
8.86024e-06
9.38322e-08
-4.02336e-07
5.5478e-07
-1.90292e-07
8.80577e-06
8.86905e-08
-3.8562e-07
5.31865e-07
-1.80432e-07
8.75308e-06
8.36299e-08
-3.68855e-07
5.08717e-07
-1.70831e-07
8.70191e-06
7.97411e-08
-3.55709e-07
4.90175e-07
-1.62996e-07
8.65444e-06
7.2866e-08
-3.28214e-07
4.54079e-07
-1.51153e-07
8.60388e-06
7.57242e-08
-3.38903e-07
4.65977e-07
-1.523e-07
-7.03779e-09
-1.30425e-07
2.01326e-07
-3.09446e-08
1.29822e-05
-8.39111e-06
-8.53387e-06
1.06071e-05
7.92134e-06
1.19891e-05
-2.47413e-06
-2.72598e-06
3.72682e-06
2.46634e-06
1.11145e-05
-1.16658e-06
-1.55634e-06
2.2636e-06
1.33397e-06
1.05016e-05
-4.72273e-07
-9.43474e-07
1.42315e-06
6.05521e-07
1.00887e-05
-2.01738e-07
-6.3345e-07
9.71736e-07
2.76305e-07
9.80824e-06
-5.59342e-08
-4.93271e-07
7.48725e-07
8.09375e-08
9.61627e-06
3.54703e-08
-4.29012e-07
6.35226e-07
-4.9711e-08
9.48386e-06
9.41322e-08
-3.99657e-07
5.76402e-07
-1.38467e-07
9.39164e-06
1.3462e-07
-3.90081e-07
5.49391e-07
-2.01704e-07
9.32645e-06
1.6567e-07
-3.93687e-07
5.43325e-07
-2.50127e-07
9.27887e-06
1.90967e-07
-4.06594e-07
5.51967e-07
-2.88758e-07
9.24184e-06
2.118e-07
-4.26243e-07
5.71236e-07
-3.19757e-07
9.21002e-06
2.28381e-07
-4.49681e-07
5.96977e-07
-3.43862e-07
9.17947e-06
2.40311e-07
-4.73341e-07
6.245e-07
-3.60922e-07
9.14744e-06
2.47321e-07
-4.941e-07
6.49659e-07
-3.70848e-07
9.11222e-06
2.49568e-07
-5.09911e-07
6.69585e-07
-3.74021e-07
9.07297e-06
2.47619e-07
-5.19801e-07
6.82728e-07
-3.71296e-07
9.02953e-06
2.42284e-07
-5.23675e-07
6.88654e-07
-3.63822e-07
8.9822e-06
2.34474e-07
-5.22054e-07
6.87762e-07
-3.52852e-07
8.93157e-06
2.25046e-07
-5.15781e-07
6.80924e-07
-3.39558e-07
8.87836e-06
2.14724e-07
-5.058e-07
6.69215e-07
-3.24936e-07
8.82335e-06
2.04084e-07
-4.93058e-07
6.53765e-07
-3.09775e-07
8.76724e-06
1.93544e-07
-4.78395e-07
6.35615e-07
-2.94658e-07
8.7107e-06
1.83375e-07
-4.62503e-07
6.15644e-07
-2.79969e-07
8.65425e-06
1.7373e-07
-4.46001e-07
5.94649e-07
-2.65932e-07
8.59835e-06
1.64712e-07
-4.29504e-07
5.73395e-07
-2.52703e-07
8.54334e-06
1.56317e-07
-4.13388e-07
5.52374e-07
-2.40312e-07
8.48951e-06
1.48552e-07
-3.98008e-07
5.32095e-07
-2.28798e-07
8.43706e-06
1.41393e-07
-3.83103e-07
5.12316e-07
-2.18173e-07
8.38618e-06
1.34867e-07
-3.68175e-07
4.92697e-07
-2.08479e-07
8.33713e-06
1.2882e-07
-3.51584e-07
4.71368e-07
-1.99529e-07
8.28974e-06
1.24145e-07
-3.34811e-07
4.50256e-07
-1.92223e-07
8.24589e-06
1.14642e-07
-3.03582e-07
4.12026e-07
-1.79151e-07
8.19965e-06
1.1645e-07
-3.06365e-07
4.14067e-07
-1.78025e-07
6.94903e-09
-1.24577e-07
1.91799e-07
-4.42959e-08
4.87903e-06
7.98389e-06
-2.81786e-06
-5.02954e-06
3.71556e-06
2.00239e-06
-6.56645e-07
-1.02031e-06
3.18014e-06
7.57685e-07
-2.4351e-07
-3.36573e-07
2.93763e-06
3.62201e-07
-8.1887e-08
-1.34677e-07
2.81357e-06
1.67541e-07
-4.69151e-08
-5.55956e-08
2.74392e-06
1.02301e-07
-2.6432e-08
-3.08841e-08
2.70373e-06
8.6384e-08
-1.06428e-08
-2.32795e-08
2.6808e-06
8.57156e-08
6.70311e-10
-2.09226e-08
2.66859e-06
9.33999e-08
9.48916e-09
-2.1738e-08
2.66353e-06
1.06207e-07
1.70248e-08
-2.44918e-08
2.66345e-06
1.22126e-07
2.38172e-08
-2.83627e-08
2.66699e-06
1.40083e-07
3.01782e-08
-3.29332e-08
2.67324e-06
1.59105e-07
3.61884e-08
-3.78548e-08
2.68153e-06
1.78181e-07
4.17925e-08
-4.28019e-08
2.69136e-06
1.96309e-07
4.68688e-08
-4.74754e-08
2.70231e-06
2.12644e-07
5.1296e-08
-5.16395e-08
2.714e-06
2.26583e-07
5.4992e-08
-5.51365e-08
2.72609e-06
2.3781e-07
5.79287e-08
-5.78931e-08
2.73829e-06
2.46192e-07
6.01062e-08
-5.98882e-08
2.75037e-06
2.51775e-07
6.15588e-08
-6.11482e-08
2.76211e-06
2.54731e-07
6.23474e-08
-6.17289e-08
2.77338e-06
2.55297e-07
6.2536e-08
-6.17035e-08
2.78407e-06
2.53774e-07
6.22011e-08
-6.1161e-08
2.79412e-06
2.50481e-07
6.14208e-08
-6.01908e-08
2.80349e-06
2.45741e-07
6.02691e-08
-5.88824e-08
2.81218e-06
2.39856e-07
5.88114e-08
-5.73207e-08
2.82021e-06
2.33049e-07
5.70907e-08
-5.5564e-08
2.82759e-06
2.2564e-07
5.51839e-08
-5.36961e-08
2.83436e-06
2.17715e-07
5.31431e-08
-5.17266e-08
2.84058e-06
2.09735e-07
5.11225e-08
-4.97597e-08
2.84638e-06
2.01186e-07
4.90792e-08
-4.76044e-08
2.85189e-06
1.94044e-07
4.75287e-08
-4.58756e-08
2.85731e-06
1.75697e-07
4.2922e-08
-4.06763e-08
2.86165e-06
1.84563e-07
4.57485e-08
-4.41297e-08
-4.11709e-08
-2.26377e-08
2.16067e-08
4.1281e-05