/*--------------------------------*- C++ -*----------------------------------*\
| =========                 |                                                 |
| \\      /  F ield         | OpenFOAM: The Open Source CFD Toolbox           |
|  \\    /   O peration     | Version:  2.4.x                                 |
|   \\  /    A nd           | Web:      www.OpenFOAM.org                      |
|    \\/     M anipulation  |                                                 |
\*---------------------------------------------------------------------------*/
FoamFile
{
    version     2.0;
    format      ascii;
    class       volVectorField;
    location    "9960/coolant";
    object      U;
}
// * * * * * * * * * * * * * * * * * * * * * * * * * * * * * * * * * * * * * //

dimensions      [0 1 -1 0 0 0 0];

internalField   nonuniform List<vector> 
109760
(
(0.00191264 0.00213055 -0.10301)
(0.000871499 0.00101558 -0.107413)
(0.000658629 0.000779496 -0.109772)
(0.000531537 0.000650985 -0.111378)
(0.00043194 0.000543138 -0.112729)
(0.000373371 0.000478939 -0.113869)
(0.0003345 0.000436931 -0.114809)
(0.000303467 0.000403403 -0.115562)
(0.000276767 0.000374627 -0.116132)
(0.000252534 0.000348712 -0.116519)
(0.000229537 0.000324329 -0.116732)
(0.000207264 0.000300916 -0.116792)
(0.000185673 0.000278452 -0.116731)
(0.000164965 0.000257168 -0.116586)
(0.00014544 0.000237349 -0.116393)
(0.000127366 0.000219188 -0.116185)
(0.000110918 0.000202757 -0.115984)
(9.61564e-05 0.000188016 -0.115808)
(8.30311e-05 0.000174835 -0.115667)
(7.14252e-05 0.000163052 -0.115565)
(6.11888e-05 0.000152501 -0.115504)
(5.21615e-05 0.000143025 -0.115485)
(4.41857e-05 0.000134476 -0.115505)
(3.71104e-05 0.000126713 -0.115561)
(3.0797e-05 0.000119607 -0.11565)
(2.5126e-05 0.00011302 -0.115768)
(1.99853e-05 0.000106823 -0.115913)
(1.5315e-05 0.000100901 -0.11608)
(1.10692e-05 9.51329e-05 -0.116267)
(7.26999e-06 8.9547e-05 -0.116469)
(3.85453e-06 8.39742e-05 -0.116684)
(8.53236e-07 7.87107e-05 -0.116908)
(-2.40538e-06 7.23506e-05 -0.117138)
(-6.44611e-06 6.64321e-05 -0.117365)
(-2.02569e-05 2.87819e-05 -0.117633)
(0.00262844 0.00286094 -0.102088)
(0.000976085 0.00130904 -0.105439)
(0.000699495 0.00095761 -0.105794)
(0.000491479 0.000736043 -0.105288)
(0.000354176 0.00056854 -0.104326)
(0.000266419 0.000455368 -0.10306)
(0.000202159 0.000373767 -0.101662)
(0.000151747 0.000311156 -0.10028)
(0.000112008 0.000263217 -0.0990105)
(8.05521e-05 0.000226943 -0.097898)
(5.54033e-05 0.000199748 -0.0969569)
(3.51284e-05 0.00017962 -0.0961839)
(1.85594e-05 0.000164983 -0.0955652)
(4.83851e-06 0.000154576 -0.095084)
(-6.58934e-06 0.000147318 -0.0947231)
(-1.61282e-05 0.000142299 -0.0944661)
(-2.41038e-05 0.000138823 -0.0942984)
(-3.07689e-05 0.000136327 -0.0942068)
(-3.63128e-05 0.000134381 -0.0941795)
(-4.0891e-05 0.000132669 -0.0942063)
(-4.46384e-05 0.000130967 -0.0942782)
(-4.7673e-05 0.000129129 -0.0943875)
(-5.00891e-05 0.00012707 -0.0945274)
(-5.19617e-05 0.000124752 -0.0946919)
(-5.33556e-05 0.000122175 -0.094876)
(-5.43206e-05 0.000119329 -0.0950754)
(-5.49108e-05 0.000116212 -0.0952864)
(-5.51573e-05 0.000112803 -0.0955061)
(-5.51012e-05 0.00010904 -0.0957315)
(-5.47773e-05 0.000105051 -0.09596)
(-5.42023e-05 0.000100702 -0.0961886)
(-5.34461e-05 9.66572e-05 -0.0964153)
(-5.20682e-05 9.06689e-05 -0.0966394)
(-5.24057e-05 8.8797e-05 -0.0968541)
(-3.88694e-05 3.71516e-05 -0.0970962)
(0.00150872 0.0023046 -0.0778481)
(0.000401977 0.000620549 -0.0645362)
(0.000211802 0.00025706 -0.054568)
(0.000136587 9.65862e-05 -0.0496588)
(9.26741e-05 4.37637e-05 -0.0470695)
(8.19493e-05 1.77301e-05 -0.0455759)
(8.30673e-05 1.6864e-06 -0.0446812)
(8.74178e-05 -8.7146e-06 -0.044141)
(9.35974e-05 -1.60266e-05 -0.0438177)
(0.000101481 -2.16704e-05 -0.0436309)
(0.000110927 -2.63764e-05 -0.0435301)
(0.000121438 -3.03966e-05 -0.0434801)
(0.000132179 -3.37623e-05 -0.0434549)
(0.000142129 -3.63986e-05 -0.0434342)
(0.000150388 -3.82166e-05 -0.0434029)
(0.000156404 -3.91993e-05 -0.0433507)
(0.000159983 -3.94055e-05 -0.0432716)
(0.000161214 -3.89472e-05 -0.0431633)
(0.000160386 -3.79691e-05 -0.0430265)
(0.000157884 -3.66195e-05 -0.0428639)
(0.000154109 -3.50334e-05 -0.0426792)
(0.000149442 -3.33258e-05 -0.042477)
(0.000144207 -3.15866e-05 -0.0422616)
(0.00013866 -2.98793e-05 -0.0420374)
(0.000133007 -2.8244e-05 -0.041808)
(0.000127422 -2.67051e-05 -0.0415766)
(0.000122003 -2.52646e-05 -0.0413457)
(0.000116859 -2.39195e-05 -0.0411171)
(0.000111935 -2.26654e-05 -0.0408921)
(0.000107231 -2.15174e-05 -0.0406717)
(0.000102305 -2.04717e-05 -0.0404566)
(9.78971e-05 -1.97221e-05 -0.040251)
(8.84817e-05 -1.82095e-05 -0.0400504)
(9.13606e-05 -1.86989e-05 -0.0398907)
(1.39314e-05 2.67407e-06 -0.0396554)
(0.00267571 0.00278657 -0.0945473)
(0.000924056 0.00098803 -0.0915444)
(0.00053366 0.000577515 -0.0860172)
(0.000294837 0.000347543 -0.0814561)
(0.00016797 0.000214928 -0.0780708)
(0.000101411 0.000143231 -0.0756063)
(6.2772e-05 0.000101987 -0.0738131)
(3.83792e-05 7.59778e-05 -0.0725145)
(2.24912e-05 5.92261e-05 -0.071577)
(1.17788e-05 4.8454e-05 -0.0709034)
(4.16092e-06 4.15995e-05 -0.0704279)
(-1.57021e-06 3.74021e-05 -0.0701023)
(-6.07857e-06 3.50379e-05 -0.0698934)
(-9.76881e-06 3.39226e-05 -0.069778)
(-1.28656e-05 3.36251e-05 -0.069738)
(-1.54829e-05 3.38164e-05 -0.0697597)
(-1.7698e-05 3.42572e-05 -0.0698319)
(-1.95613e-05 3.47836e-05 -0.0699453)
(-2.11072e-05 3.52767e-05 -0.0700923)
(-2.2363e-05 3.56556e-05 -0.0702667)
(-2.33536e-05 3.58688e-05 -0.0704632)
(-2.41082e-05 3.58941e-05 -0.0706773)
(-2.46543e-05 3.57308e-05 -0.0709055)
(-2.50117e-05 3.53896e-05 -0.0711446)
(-2.5195e-05 3.48948e-05 -0.0713919)
(-2.52098e-05 3.42533e-05 -0.0716451)
(-2.50879e-05 3.34747e-05 -0.0719025)
(-2.48681e-05 3.2551e-05 -0.0721624)
(-2.46084e-05 3.14239e-05 -0.0724236)
(-2.43958e-05 3.01792e-05 -0.0726852)
(-2.41905e-05 2.86946e-05 -0.0729459)
(-2.40039e-05 2.74186e-05 -0.0732047)
(-2.32589e-05 2.50169e-05 -0.0734606)
(-2.37699e-05 2.53757e-05 -0.0737008)
(-1.71162e-05 -5.10538e-06 -0.0739853)
(0.0020753 0.00194953 -0.0762903)
(0.000588595 0.000485518 -0.0623726)
(0.000239678 0.000205229 -0.05269)
(0.000125508 7.48543e-05 -0.0478844)
(6.10221e-05 3.76678e-05 -0.0453537)
(4.02756e-05 1.83956e-05 -0.0438993)
(3.71976e-05 4.35926e-06 -0.0430194)
(3.92542e-05 -5.74241e-06 -0.0424776)
(4.40833e-05 -1.36104e-05 -0.0421502)
(5.06954e-05 -2.03059e-05 -0.0419639)
(5.84238e-05 -2.63257e-05 -0.0418743)
(6.69049e-05 -3.19548e-05 -0.0418544)
(7.57615e-05 -3.72857e-05 -0.0418863)
(8.45688e-05 -4.22828e-05 -0.0419576)
(9.28849e-05 -4.68418e-05 -0.042059)
(0.000100325 -5.08447e-05 -0.0421828)
(0.000106609 -5.41995e-05 -0.0423226)
(0.000111589 -5.68602e-05 -0.0424723)
(0.00011521 -5.88134e-05 -0.0426269)
(0.000117502 -6.00821e-05 -0.0427821)
(0.000118559 -6.07171e-05 -0.0429344)
(0.000118504 -6.0779e-05 -0.0430809)
(0.000117492 -6.0342e-05 -0.0432198)
(0.000115684 -5.94847e-05 -0.0433498)
(0.000113238 -5.82829e-05 -0.0434703)
(0.000110303 -5.6806e-05 -0.0435811)
(0.000106987 -5.51046e-05 -0.0436823)
(0.000103432 -5.32431e-05 -0.0437743)
(9.96899e-05 -5.12708e-05 -0.0438577)
(9.59348e-05 -4.92931e-05 -0.0439334)
(9.19756e-05 -4.7299e-05 -0.0440022)
(8.86043e-05 -4.5652e-05 -0.0440668)
(8.06268e-05 -4.19324e-05 -0.0441273)
(8.35988e-05 -4.29583e-05 -0.044189)
(-9.74973e-06 4.9821e-06 -0.0442258)
(0.00272099 0.00273999 -0.102173)
(0.00116785 0.00112181 -0.105584)
(0.000838602 0.000814725 -0.106114)
(0.000618436 0.000605297 -0.105784)
(0.000462 0.000454905 -0.104991)
(0.000358985 0.000356076 -0.103861)
(0.000283991 0.000283735 -0.102548)
(0.00022532 0.000226551 -0.101205)
(0.000179418 0.000181425 -0.0999384)
(0.000143838 0.000146196 -0.0988068)
(0.000116345 0.000118796 -0.0978348)
(9.51296e-05 9.75239e-05 -0.0970252)
(7.8755e-05 8.09911e-05 -0.0963693)
(6.60607e-05 6.80925e-05 -0.095853)
(5.61528e-05 5.7971e-05 -0.0954605)
(4.8358e-05 4.99538e-05 -0.095176)
(4.21527e-05 4.35298e-05 -0.0949849)
(3.7138e-05 3.8315e-05 -0.0948743)
(3.30218e-05 3.4011e-05 -0.0948323)
(2.95955e-05 3.03898e-05 -0.0948488)
(2.67074e-05 2.7283e-05 -0.0949148)
(2.42427e-05 2.45702e-05 -0.0950225)
(2.21104e-05 2.21655e-05 -0.095165)
(2.02383e-05 2.00054e-05 -0.0953365)
(1.85668e-05 1.80442e-05 -0.0955321)
(1.70447e-05 1.62274e-05 -0.0957474)
(1.56121e-05 1.45064e-05 -0.095979)
(1.42402e-05 1.28338e-05 -0.0962237)
(1.28853e-05 1.11416e-05 -0.0964785)
(1.15563e-05 9.49356e-06 -0.0967405)
(1.02036e-05 7.80259e-06 -0.0970063)
(8.94627e-06 6.35128e-06 -0.0972739)
(7.02657e-06 4.40666e-06 -0.0975428)
(5.11625e-06 2.57868e-06 -0.0978039)
(-1.46655e-05 -1.52419e-05 -0.0981074)
(0.00113302 0.000233358 -0.102418)
(0.000694264 0.000116655 -0.106484)
(0.000510089 8.77642e-05 -0.109186)
(0.000447898 7.63986e-05 -0.111014)
(0.00038353 6.36579e-05 -0.112614)
(0.000343212 5.62054e-05 -0.114069)
(0.000319566 5.18285e-05 -0.115398)
(0.000302554 4.85686e-05 -0.116642)
(0.000289776 4.60317e-05 -0.117826)
(0.000280221 4.40419e-05 -0.118964)
(0.000272979 4.24272e-05 -0.120067)
(0.000267458 4.10748e-05 -0.121142)
(0.000263259 3.99125e-05 -0.122194)
(0.00026006 3.88887e-05 -0.12323)
(0.000257587 3.79694e-05 -0.12425)
(0.000255606 3.71366e-05 -0.125259)
(0.000253924 3.63861e-05 -0.126256)
(0.00025239 3.57213e-05 -0.127244)
(0.000250888 3.51481e-05 -0.12822)
(0.00024934 3.46699e-05 -0.129185)
(0.000247697 3.42837e-05 -0.130138)
(0.000245937 3.39749e-05 -0.131076)
(0.000244055 3.37128e-05 -0.131997)
(0.000242047 3.34491e-05 -0.132899)
(0.000239903 3.3117e-05 -0.133778)
(0.0002376 3.26341e-05 -0.134631)
(0.000235086 3.19123e-05 -0.135452)
(0.000232306 3.08711e-05 -0.136238)
(0.000229164 2.9445e-05 -0.136983)
(0.000225601 2.76194e-05 -0.137683)
(0.00022144 2.53906e-05 -0.138333)
(0.000216695 2.28354e-05 -0.138928)
(0.000210064 1.99033e-05 -0.139467)
(0.000200928 1.62926e-05 -0.139934)
(0.000134334 7.44682e-06 -0.140388)
(0.00293426 0.00270457 -0.101266)
(0.00142314 0.000940594 -0.103807)
(0.00102365 0.000656138 -0.103018)
(0.000770594 0.000432466 -0.101446)
(0.000580383 0.000294381 -0.0996073)
(0.00045424 0.000208655 -0.0977158)
(0.000367526 0.000147292 -0.0959377)
(0.000305292 0.000100628 -0.0943742)
(0.000261006 6.47657e-05 -0.0930574)
(0.000230075 3.68748e-05 -0.0919775)
(0.000209002 1.48009e-05 -0.0911106)
(0.000195288 -3.02026e-06 -0.0904274)
(0.000187085 -1.77368e-05 -0.0899011)
(0.000182846 -3.01529e-05 -0.0895085)
(0.00018133 -4.07576e-05 -0.0892295)
(0.000181556 -4.98315e-05 -0.0890465)
(0.000182716 -5.75556e-05 -0.0889436)
(0.000184181 -6.40589e-05 -0.0889069)
(0.000185481 -6.94457e-05 -0.0889245)
(0.000186304 -7.38074e-05 -0.0889858)
(0.000186455 -7.72396e-05 -0.0890817)
(0.000185823 -7.98242e-05 -0.0892043)
(0.000184377 -8.16285e-05 -0.0893468)
(0.000182148 -8.27207e-05 -0.0895031)
(0.00017921 -8.31637e-05 -0.0896685)
(0.000175659 -8.30214e-05 -0.089839)
(0.000171583 -8.23585e-05 -0.0900114)
(0.000167084 -8.12471e-05 -0.0901835)
(0.000162165 -7.97828e-05 -0.0903535)
(0.000156943 -7.80454e-05 -0.0905202)
(0.000151266 -7.61498e-05 -0.0906823)
(0.000145777 -7.41905e-05 -0.0908395)
(0.000137224 -7.10278e-05 -0.0909904)
(0.000135314 -6.99212e-05 -0.0911318)
(6.42501e-05 -3.77806e-05 -0.0912837)
(0.00148962 0.0011561 -0.102662)
(0.00081767 0.000553675 -0.106886)
(0.000613423 0.000419625 -0.109518)
(0.000528529 0.000358304 -0.111327)
(0.000448081 0.000295266 -0.112913)
(0.000399824 0.000258812 -0.114348)
(0.000370785 0.000237058 -0.115656)
(0.000349591 0.000220908 -0.116874)
(0.000333456 0.000208379 -0.118026)
(0.000321108 0.000198537 -0.119124)
(0.000311484 0.000190535 -0.120174)
(0.00030389 0.000183802 -0.12118)
(0.000297818 0.000177937 -0.122142)
(0.000292785 0.000172599 -0.123058)
(0.000288293 0.000167479 -0.123924)
(0.000283829 0.000162281 -0.124733)
(0.000278922 0.000156736 -0.12548)
(0.000273195 0.000150627 -0.126158)
(0.000266418 0.000143813 -0.126762)
(0.000258525 0.00013625 -0.127292)
(0.000249597 0.000127982 -0.127751)
(0.000239816 0.000119127 -0.128145)
(0.000229411 0.000109843 -0.128483)
(0.00021863 0.000100307 -0.128777)
(0.000207701 9.06961e-05 -0.129038)
(0.000196808 8.11685e-05 -0.129276)
(0.000186085 7.18576e-05 -0.129502)
(0.000175655 6.28762e-05 -0.129721)
(0.00016556 5.42964e-05 -0.129938)
(0.000155874 4.62555e-05 -0.130156)
(0.000146508 3.87224e-05 -0.130376)
(0.000137595 3.1847e-05 -0.130598)
(0.000127861 2.50264e-05 -0.130823)
(0.000117811 1.72149e-05 -0.131037)
(6.93131e-05 -2.28488e-06 -0.131291)
(0.0030735 0.000917035 -0.0927166)
(0.00100034 0.000346171 -0.08858)
(0.000558386 0.000227047 -0.0815877)
(0.000287283 0.000155009 -0.0765942)
(0.000159878 0.000113321 -0.0731693)
(8.90499e-05 9.45017e-05 -0.0708011)
(4.51105e-05 8.66833e-05 -0.0691545)
(1.68126e-05 8.43328e-05 -0.0680033)
(-2.20161e-06 8.53458e-05 -0.0671888)
(-1.53885e-05 8.85523e-05 -0.066606)
(-2.45008e-05 9.31857e-05 -0.0661744)
(-3.05192e-05 9.87663e-05 -0.0658387)
(-3.40297e-05 0.000104673 -0.0655536)
(-3.54568e-05 0.000110147 -0.0652851)
(-3.52178e-05 0.000114589 -0.0650098)
(-3.37308e-05 0.000117627 -0.0647134)
(-3.13998e-05 0.000119142 -0.0643889)
(-2.85875e-05 0.000119208 -0.0640345)
(-2.55916e-05 0.000118021 -0.0636523)
(-2.26272e-05 0.000115825 -0.0632462)
(-1.98386e-05 0.000112884 -0.062822)
(-1.73093e-05 0.00010944 -0.0623857)
(-1.50778e-05 0.000105691 -0.0619423)
(-1.31618e-05 0.000101785 -0.0614965)
(-1.15508e-05 9.78359e-05 -0.0610523)
(-1.02178e-05 9.39177e-05 -0.0606131)
(-9.10861e-06 9.00836e-05 -0.0601814)
(-8.14789e-06 8.63411e-05 -0.0597591)
(-7.27923e-06 8.27039e-05 -0.0593475)
(-6.43171e-06 7.92191e-05 -0.0589478)
(-5.65642e-06 7.57144e-05 -0.05856)
(-5.08359e-06 7.2878e-05 -0.0581881)
(-4.69763e-06 6.74687e-05 -0.0578217)
(-4.67498e-06 6.90484e-05 -0.0575094)
(8.74074e-06 3.07502e-05 -0.0570872)
(0.00087131 0.00318345 -0.0933615)
(0.000346926 0.00101913 -0.0896437)
(0.000237054 0.000561553 -0.0829293)
(0.000167173 0.000286446 -0.0780417)
(0.000124134 0.000158115 -0.0746453)
(0.00010392 8.67965e-05 -0.072267)
(9.49263e-05 4.28386e-05 -0.070588)
(9.12432e-05 1.46841e-05 -0.0693956)
(9.08016e-05 -4.08177e-06 -0.0685418)
(9.24686e-05 -1.69698e-05 -0.0679215)
(9.55856e-05 -2.57696e-05 -0.0674601)
(9.97661e-05 -3.14034e-05 -0.0670981)
(0.000104482 -3.45009e-05 -0.0667909)
(0.000109036 -3.55241e-05 -0.0665046)
(0.000112825 -3.49013e-05 -0.0662152)
(0.000115483 -3.30689e-05 -0.0659075)
(0.000116867 -3.04473e-05 -0.0655735)
(0.000117008 -2.7407e-05 -0.0652109)
(0.000116049 -2.42464e-05 -0.0648214)
(0.000114183 -2.11802e-05 -0.0644089)
(0.000111612 -1.83473e-05 -0.0639788)
(0.000108531 -1.58221e-05 -0.0635365)
(0.00010511 -1.36319e-05 -0.0630874)
(0.000101486 -1.17695e-05 -0.0626362)
(9.77814e-05 -1.01977e-05 -0.062187)
(9.41215e-05 -8.87005e-06 -0.0617428)
(9.05767e-05 -7.74269e-06 -0.0613062)
(8.721e-05 -6.78238e-06 -0.0608794)
(8.39685e-05 -6.02133e-06 -0.0604637)
(8.07066e-05 -5.52822e-06 -0.0600607)
(7.71231e-05 -5.40065e-06 -0.0596703)
(7.34629e-05 -5.66625e-06 -0.0592962)
(6.69725e-05 -5.92334e-06 -0.0589269)
(6.70283e-05 -5.38456e-06 -0.0586095)
(2.9961e-05 8.78469e-06 -0.0581844)
(0.0030427 0.00130728 -0.0906699)
(0.000971452 0.000468508 -0.0851149)
(0.000512829 0.000296701 -0.0773429)
(0.000247318 0.000198562 -0.0720656)
(0.000129822 0.000142103 -0.0685996)
(6.77228e-05 0.000118231 -0.0662862)
(3.02189e-05 0.000109391 -0.0647326)
(6.67098e-06 0.000107474 -0.063682)
(-8.75771e-06 0.000109674 -0.062962)
(-1.94407e-05 0.000114697 -0.0624634)
(-2.71485e-05 0.000121728 -0.0621097)
(-3.26695e-05 0.0001301 -0.0618456)
(-3.63495e-05 0.000138902 -0.0616301)
(-3.84302e-05 0.00014712 -0.0614319)
(-3.91199e-05 0.000153899 -0.061229)
(-3.86569e-05 0.000158696 -0.0610071)
(-3.73083e-05 0.000161326 -0.0607585)
(-3.53474e-05 0.000161879 -0.0604804)
(-3.30227e-05 0.000160619 -0.0601739)
(-3.05401e-05 0.00015789 -0.0598424)
(-2.8057e-05 0.000154062 -0.0594906)
(-2.56835e-05 0.000149476 -0.0591237)
(-2.34899e-05 0.000144416 -0.0587468)
(-2.15156e-05 0.000139101 -0.0583644)
(-1.97716e-05 0.000133698 -0.0579808)
(-1.82524e-05 0.000128316 -0.0575993)
(-1.69243e-05 0.000123035 -0.0572226)
(-1.57318e-05 0.000117883 -0.0568531)
(-1.46288e-05 0.000112875 -0.056492)
(-1.3555e-05 0.000108127 -0.0561409)
(-1.25363e-05 0.000103359 -0.0557994)
(-1.17342e-05 9.95795e-05 -0.0554715)
(-1.08063e-05 9.20377e-05 -0.0551476)
(-1.07756e-05 9.47202e-05 -0.0548734)
(5.82431e-06 3.69077e-05 -0.0544874)
(0.00133263 0.00308237 -0.0910788)
(0.000469271 0.000973029 -0.0860744)
(0.000295937 0.000514795 -0.0787336)
(0.000206189 0.000250556 -0.0736848)
(0.000152634 0.000132428 -0.070313)
(0.000129963 6.88245e-05 -0.0680272)
(0.000121705 3.02306e-05 -0.0664664)
(0.000119512 6.05699e-06 -0.0653941)
(0.000120748 -9.76673e-06 -0.0646503)
(0.000124513 -2.08224e-05 -0.0641292)
(0.000130159 -2.87894e-05 -0.0637564)
(0.000137133 -3.44184e-05 -0.0634767)
(0.000144695 -3.812e-05 -0.0632485)
(0.0001519 -4.01364e-05 -0.0630404)
(0.000157915 -4.06969e-05 -0.0628296)
(0.000162215 -4.00626e-05 -0.0626011)
(0.000164588 -3.8525e-05 -0.0623466)
(0.000165071 -3.63738e-05 -0.0620629)
(0.000163875 -3.38723e-05 -0.0617509)
(0.000161294 -3.12354e-05 -0.0614139)
(0.000157641 -2.86232e-05 -0.0610566)
(0.000153216 -2.61456e-05 -0.0606843)
(0.000148282 -2.38684e-05 -0.0603022)
(0.000143047 -2.18218e-05 -0.059915)
(0.000137688 -2.00029e-05 -0.0595268)
(0.000132374 -1.83919e-05 -0.059141)
(0.000127202 -1.69591e-05 -0.0587603)
(0.00012227 -1.56784e-05 -0.0583868)
(0.000117521 -1.45703e-05 -0.0580221)
(0.000112863 -1.36889e-05 -0.0576677)
(0.00010789 -1.31248e-05 -0.0573242)
(0.000103074 -1.29927e-05 -0.0569957)
(9.42102e-05 -1.26476e-05 -0.056673)
(9.47995e-05 -1.24795e-05 -0.0563996)
(3.76172e-05 5.4737e-06 -0.0560219)
(0.00158558 0.00144224 -0.06441)
(0.000363823 0.000361165 -0.0473291)
(0.00011934 0.000140715 -0.0385011)
(5.99984e-05 4.70912e-05 -0.0347433)
(2.18982e-05 2.59378e-05 -0.0329025)
(1.33436e-05 1.38061e-05 -0.0318862)
(1.53142e-05 4.14358e-06 -0.0312991)
(1.92744e-05 -2.96112e-06 -0.0309603)
(2.43833e-05 -8.61118e-06 -0.0307706)
(3.03021e-05 -1.35298e-05 -0.0306789)
(3.67066e-05 -1.8027e-05 -0.030654)
(4.34391e-05 -2.22826e-05 -0.030677)
(5.02836e-05 -2.63373e-05 -0.0307354)
(5.69693e-05 -3.01451e-05 -0.0308207)
(6.32057e-05 -3.36158e-05 -0.0309263)
(6.87439e-05 -3.6658e-05 -0.0310471)
(7.34106e-05 -3.92063e-05 -0.0311784)
(7.71231e-05 -4.12328e-05 -0.0313162)
(7.98559e-05 -4.27324e-05 -0.0314568)
(8.16398e-05 -4.37255e-05 -0.0315972)
(8.25442e-05 -4.4252e-05 -0.0317348)
(8.26562e-05 -4.43567e-05 -0.0318676)
(8.20823e-05 -4.40937e-05 -0.0319943)
(8.0932e-05 -4.35186e-05 -0.0321138)
(7.93137e-05 -4.26851e-05 -0.0322256)
(7.7328e-05 -4.16415e-05 -0.0323296)
(7.50459e-05 -4.04216e-05 -0.0324258)
(7.2572e-05 -3.90776e-05 -0.0325144)
(6.9944e-05 -3.76452e-05 -0.0325957)
(6.73152e-05 -3.62183e-05 -0.0326703)
(6.45345e-05 -3.47697e-05 -0.0327389)
(6.22712e-05 -3.36156e-05 -0.0328041)
(5.61282e-05 -3.05715e-05 -0.0328653)
(5.93988e-05 -3.19761e-05 -0.0329301)
(-1.98072e-05 1.0319e-05 -0.0329617)
(0.00276 0.0025573 -0.102212)
(0.00146835 0.000899258 -0.105545)
(0.00113136 0.000667919 -0.105302)
(0.00089916 0.000453049 -0.104251)
(0.000716048 0.000320893 -0.1028)
(0.00058987 0.000231463 -0.101124)
(0.000499615 0.000161724 -0.099423)
(0.000433249 0.000106775 -0.0978387)
(0.000385489 6.38268e-05 -0.0964463)
(0.000352462 3.01779e-05 -0.0952692)
(0.00033094 3.45833e-06 -0.094301)
(0.000318308 -1.81453e-05 -0.0935216)
(0.000312341 -3.59451e-05 -0.0929063)
(0.000311006 -5.08357e-05 -0.0924286)
(0.00031242 -6.33039e-05 -0.0920633)
(0.000314985 -7.35944e-05 -0.0917871)
(0.000317518 -8.18613e-05 -0.0915797)
(0.000319209 -8.82165e-05 -0.0914228)
(0.000319576 -9.27686e-05 -0.0913012)
(0.000318393 -9.56639e-05 -0.0912028)
(0.000315618 -9.70831e-05 -0.0911181)
(0.000311361 -9.72162e-05 -0.0910399)
(0.000305807 -9.62803e-05 -0.0909633)
(0.000299175 -9.44928e-05 -0.0908849)
(0.000291693 -9.20563e-05 -0.0908029)
(0.000283579 -8.91537e-05 -0.0907166)
(0.000275012 -8.5931e-05 -0.0906257)
(0.000266178 -8.25066e-05 -0.090531)
(0.000257138 -7.89973e-05 -0.0904332)
(0.000248056 -7.54975e-05 -0.0903335)
(0.000238682 -7.2142e-05 -0.0902326)
(0.000229842 -6.90633e-05 -0.0901321)
(0.000216763 -6.52771e-05 -0.0900297)
(0.00021357 -6.25656e-05 -0.0899349)
(0.000128906 -2.64395e-05 -0.0898214)
(0.0028929 0.00276143 -0.100635)
(0.00143658 0.000935511 -0.102594)
(0.00102631 0.000641409 -0.100972)
(0.000765656 0.000404692 -0.0987456)
(0.000572517 0.000265717 -0.0964418)
(0.000448234 0.000179169 -0.094251)
(0.000366912 0.000117289 -0.0923045)
(0.000311674 7.13821e-05 -0.0906623)
(0.000274565 3.69571e-05 -0.0893229)
(0.000250406 1.0721e-05 -0.0882544)
(0.000235594 -9.79016e-06 -0.0874169)
(0.000227677 -2.63349e-05 -0.0867731)
(0.000224818 -4.00856e-05 -0.0862898)
(0.000225496 -5.17625e-05 -0.0859392)
(0.000228375 -6.18011e-05 -0.0856976)
(0.000232311 -7.04201e-05 -0.0855448)
(0.000236383 -7.77169e-05 -0.0854631)
(0.00023991 -8.37517e-05 -0.0854372)
(0.000242432 -8.8558e-05 -0.0854537)
(0.00024369 -9.21854e-05 -0.0855011)
(0.00024358 -9.47055e-05 -0.08557)
(0.000242117 -9.61852e-05 -0.0856523)
(0.000239407 -9.67134e-05 -0.0857418)
(0.000235598 -9.63989e-05 -0.0858336)
(0.000230869 -9.53569e-05 -0.085924)
(0.000225407 -9.37053e-05 -0.0860105)
(0.000219369 -9.15509e-05 -0.0860915)
(0.000212923 -8.90001e-05 -0.0861662)
(0.000206127 -8.61746e-05 -0.0862345)
(0.000199138 -8.31934e-05 -0.0862968)
(0.00019175 -8.01957e-05 -0.0863532)
(0.000184724 -7.73727e-05 -0.086405)
(0.000173683 -7.3345e-05 -0.0864505)
(0.000171615 -7.13673e-05 -0.0864931)
(8.69619e-05 -3.1409e-05 -0.0865226)
(0.00291762 0.002817 -0.0977486)
(0.00128271 0.000929018 -0.0972649)
(0.000825732 0.000583209 -0.0934989)
(0.000557299 0.000339345 -0.0898035)
(0.000378644 0.000206399 -0.0866879)
(0.000273864 0.000131618 -0.0841765)
(0.000211408 8.29577e-05 -0.082208)
(0.000172176 4.86787e-05 -0.0807009)
(0.00014766 2.36202e-05 -0.079565)
(0.000132893 4.70714e-06 -0.078717)
(0.000124708 -1.00341e-05 -0.0780924)
(0.000121093 -2.19955e-05 -0.0776413)
(0.000120682 -3.19914e-05 -0.0773269)
(0.000122436 -4.05431e-05 -0.0771223)
(0.000125505 -4.79488e-05 -0.0770069)
(0.000129205 -5.43316e-05 -0.0769648)
(0.000133011 -5.97693e-05 -0.0769831)
(0.000136537 -6.43281e-05 -0.0770504)
(0.0001395 -6.80597e-05 -0.0771569)
(0.000141725 -7.10137e-05 -0.0772944)
(0.000143127 -7.32548e-05 -0.0774556)
(0.000143671 -7.48454e-05 -0.0776343)
(0.000143375 -7.58394e-05 -0.0778253)
(0.000142294 -7.62907e-05 -0.0780241)
(0.000140513 -7.62452e-05 -0.0782269)
(0.000138122 -7.57455e-05 -0.078431)
(0.000135199 -7.48327e-05 -0.0786338)
(0.000131842 -7.35702e-05 -0.0788337)
(0.000128067 -7.20496e-05 -0.0790295)
(0.000124011 -7.03711e-05 -0.0792204)
(0.000119555 -6.86104e-05 -0.0794055)
(0.000115331 -6.68946e-05 -0.079585)
(0.000107882 -6.36455e-05 -0.0797581)
(0.000107624 -6.3209e-05 -0.0799198)
(3.47097e-05 -2.76825e-05 -0.0800975)
(0.00262321 0.00277797 -0.0932172)
(0.00110395 0.000852977 -0.0893648)
(0.000671192 0.000480497 -0.0828071)
(0.000438397 0.000239497 -0.0777986)
(0.000293162 0.00012813 -0.0742316)
(0.000220042 6.73019e-05 -0.0717187)
(0.000184648 2.8207e-05 -0.0699607)
(0.000167258 1.97058e-06 -0.0687316)
(0.000160468 -1.64842e-05 -0.0678732)
(0.000160693 -3.03603e-05 -0.067276)
(0.000165755 -4.15481e-05 -0.0668669)
(0.000174253 -5.10818e-05 -0.0665951)
(0.000184991 -5.9492e-05 -0.0664258)
(0.000196721 -6.69769e-05 -0.0663333)
(0.000208236 -7.35064e-05 -0.0662969)
(0.000218528 -7.89542e-05 -0.0662998)
(0.000226869 -8.32195e-05 -0.0663277)
(0.000232847 -8.6264e-05 -0.0663689)
(0.000236351 -8.81081e-05 -0.0664138)
(0.000237481 -8.88365e-05 -0.0664554)
(0.000236468 -8.85777e-05 -0.0664888)
(0.000233627 -8.74817e-05 -0.0665108)
(0.00022931 -8.57151e-05 -0.06652)
(0.000223854 -8.3439e-05 -0.066516)
(0.000217571 -8.0798e-05 -0.0664992)
(0.000210741 -7.79188e-05 -0.0664709)
(0.000203568 -7.48916e-05 -0.0664325)
(0.000196258 -7.17932e-05 -0.0663856)
(0.000188878 -6.86895e-05 -0.0663321)
(0.000181587 -6.56591e-05 -0.0662738)
(0.000174084 -6.27409e-05 -0.066212)
(0.000167305 -6.02207e-05 -0.0661498)
(0.000155229 -5.62276e-05 -0.0660848)
(0.000155864 -5.52882e-05 -0.0660312)
(5.54009e-05 -1.22185e-05 -0.0659378)
(0.00128195 0.00144028 -0.0571723)
(0.000293845 0.000236281 -0.0400858)
(0.000105763 5.423e-05 -0.0324295)
(3.33164e-05 3.09086e-05 -0.0293952)
(1.85691e-05 8.68886e-06 -0.0279383)
(8.18512e-06 8.36567e-06 -0.0271452)
(-1.02511e-07 1.39574e-05 -0.0266947)
(-5.7879e-06 1.90441e-05 -0.0264392)
(-1.01986e-05 2.40786e-05 -0.0263059)
(-1.41124e-05 2.94946e-05 -0.0262527)
(-1.78148e-05 3.52996e-05 -0.0262538)
(-2.14084e-05 4.14162e-05 -0.0262931)
(-2.49312e-05 4.77371e-05 -0.02636)
(-2.82966e-05 5.39681e-05 -0.0264474)
(-3.1364e-05 5.97566e-05 -0.0265496)
(-3.40299e-05 6.48517e-05 -0.026662)
(-3.62256e-05 6.90809e-05 -0.0267806)
(-3.79148e-05 7.23504e-05 -0.0269021)
(-3.91002e-05 7.46524e-05 -0.0270234)
(-3.98064e-05 7.6028e-05 -0.0271421)
(-4.00754e-05 7.65564e-05 -0.0272562)
(-3.99636e-05 7.63449e-05 -0.0273644)
(-3.95345e-05 7.55147e-05 -0.0274656)
(-3.88501e-05 7.41865e-05 -0.0275597)
(-3.79668e-05 7.24762e-05 -0.0276465)
(-3.6915e-05 7.04522e-05 -0.0277263)
(-3.57245e-05 6.81823e-05 -0.0277993)
(-3.44094e-05 6.57007e-05 -0.0278658)
(-3.29905e-05 6.30169e-05 -0.0279259)
(-3.16053e-05 6.03786e-05 -0.0279802)
(-3.0176e-05 5.75653e-05 -0.0280296)
(-2.91565e-05 5.55373e-05 -0.0280771)
(-2.63814e-05 4.99483e-05 -0.028122)
(-2.79442e-05 5.36384e-05 -0.0281719)
(1.0201e-05 -1.9588e-05 -0.0281846)
(0.00274923 0.00282788 -0.101558)
(0.00113338 0.0011547 -0.104419)
(0.000794561 0.00082541 -0.104235)
(0.000564281 0.000603548 -0.103226)
(0.000406078 0.000445782 -0.101847)
(0.000304363 0.00034228 -0.100278)
(0.000232888 0.00026854 -0.098687)
(0.00017925 0.000212411 -0.0972021)
(0.00013879 0.000169671 -0.0958916)
(0.000108259 0.000137348 -0.0947775)
(8.50309e-05 0.000112921 -0.0938565)
(6.71929e-05 9.44816e-05 -0.0931134)
(5.3377e-05 8.05569e-05 -0.0925285)
(4.25609e-05 7.00172e-05 -0.0920815)
(3.40005e-05 6.20031e-05 -0.0917537)
(2.71667e-05 5.58515e-05 -0.0915279)
(2.1656e-05 5.10619e-05 -0.0913893)
(1.7159e-05 4.72579e-05 -0.0913247)
(1.34498e-05 4.41546e-05 -0.0913228)
(1.03667e-05 4.1541e-05 -0.091374)
(7.78992e-06 3.92638e-05 -0.0914697)
(5.62492e-06 3.72194e-05 -0.0916026)
(3.79582e-06 3.53385e-05 -0.0917665)
(2.24239e-06 3.35744e-05 -0.0919559)
(9.13642e-07 3.18983e-05 -0.0921663)
(-2.34361e-07 3.02689e-05 -0.0923938)
(-1.25792e-06 2.86479e-05 -0.0926352)
(-2.18965e-06 2.69918e-05 -0.0928876)
(-3.07498e-06 2.52306e-05 -0.0931485)
(-3.92276e-06 2.34385e-05 -0.0934149)
(-4.75971e-06 2.15243e-05 -0.093684)
(-5.50747e-06 1.98498e-05 -0.0939539)
(-6.60192e-06 1.74491e-05 -0.0942244)
(-8.13427e-06 1.59091e-05 -0.0944856)
(-2.06793e-05 -8.00882e-06 -0.0947908)
(0.00207402 0.00191558 -0.0770548)
(0.000595963 0.000471884 -0.0633714)
(0.000231885 0.000208263 -0.053782)
(0.000119911 7.6781e-05 -0.0489737)
(5.82257e-05 3.80622e-05 -0.0464546)
(3.64123e-05 1.88929e-05 -0.0450006)
(3.15252e-05 5.21562e-06 -0.0441132)
(3.20264e-05 -4.5955e-06 -0.0435673)
(3.5197e-05 -1.20753e-05 -0.0432335)
(3.99695e-05 -1.83165e-05 -0.0430411)
(4.5696e-05 -2.38087e-05 -0.0429468)
(5.2081e-05 -2.88902e-05 -0.0429237)
(5.88417e-05 -3.36876e-05 -0.0429541)
(6.56578e-05 -3.81965e-05 -0.0430259)
(7.21944e-05 -4.23399e-05 -0.04313)
(7.81632e-05 -4.60258e-05 -0.0432593)
(8.33547e-05 -4.9182e-05 -0.043408)
(8.76531e-05 -5.17729e-05 -0.0435708)
(9.09977e-05 -5.37855e-05 -0.043743)
(9.33874e-05 -5.52323e-05 -0.0439207)
(9.48662e-05 -5.61494e-05 -0.0441006)
(9.54976e-05 -5.65775e-05 -0.0442797)
(9.53663e-05 -5.65648e-05 -0.0444558)
(9.45663e-05 -5.6163e-05 -0.0446272)
(9.3196e-05 -5.54212e-05 -0.0447924)
(9.13466e-05 -5.43815e-05 -0.0449507)
(8.90872e-05 -5.30757e-05 -0.0451014)
(8.65294e-05 -5.15651e-05 -0.0452442)
(8.37202e-05 -4.9907e-05 -0.045379)
(8.08434e-05 -4.82333e-05 -0.0455062)
(7.77654e-05 -4.65451e-05 -0.0456266)
(7.51623e-05 -4.5164e-05 -0.0457426)
(6.85892e-05 -4.16771e-05 -0.0458539)
(7.15341e-05 -4.28259e-05 -0.0459621)
(-1.15722e-05 5.22836e-06 -0.0460426)
(0.00271592 0.000141483 -0.1022)
(0.00107671 6.33792e-05 -0.105339)
(0.000766045 4.94003e-05 -0.10413)
(0.000515194 3.60439e-05 -0.102294)
(0.000357862 2.77081e-05 -0.1002)
(0.000243732 2.25139e-05 -0.0980902)
(0.000157245 1.9115e-05 -0.0961549)
(9.23425e-05 1.698e-05 -0.094477)
(4.38702e-05 1.57941e-05 -0.0930671)
(7.86207e-06 1.53217e-05 -0.0918939)
(-1.82799e-05 1.53598e-05 -0.090907)
(-3.59695e-05 1.57164e-05 -0.0900674)
(-4.6545e-05 1.62066e-05 -0.0893234)
(-5.15157e-05 1.66966e-05 -0.0886352)
(-5.22347e-05 1.70848e-05 -0.0879749)
(-4.99432e-05 1.73054e-05 -0.087325)
(-4.57316e-05 1.73352e-05 -0.0866761)
(-4.0491e-05 1.71825e-05 -0.0860244)
(-3.48954e-05 1.68724e-05 -0.0853697)
(-2.94151e-05 1.64375e-05 -0.084714)
(-2.43468e-05 1.59177e-05 -0.0840603)
(-1.98421e-05 1.53442e-05 -0.0834119)
(-1.59522e-05 1.47442e-05 -0.0827717)
(-1.26789e-05 1.41424e-05 -0.0821426)
(-9.977e-06 1.35586e-05 -0.0815266)
(-7.77866e-06 1.30034e-05 -0.0809255)
(-6.0023e-06 1.24766e-05 -0.0803404)
(-4.56622e-06 1.19378e-05 -0.0797723)
(-3.43024e-06 1.13713e-05 -0.0792221)
(-2.54143e-06 1.07059e-05 -0.0786912)
(-1.92915e-06 9.93393e-06 -0.0781799)
(-1.55084e-06 9.20929e-06 -0.0776915)
(-1.42056e-06 8.25618e-06 -0.0772144)
(-2.32384e-07 8.43765e-06 -0.0767893)
(1.37428e-05 5.24497e-06 -0.0762675)
(8.89653e-05 0.00271828 -0.102214)
(5.677e-05 0.0010755 -0.105365)
(5.26366e-05 0.000765039 -0.104165)
(4.39518e-05 0.000514016 -0.10233)
(3.60644e-05 0.000356906 -0.100233)
(3.06376e-05 0.000243075 -0.0981205)
(2.69203e-05 0.000156848 -0.0961818)
(2.42956e-05 9.20963e-05 -0.0945012)
(2.24198e-05 4.36766e-05 -0.0930891)
(2.10745e-05 7.70572e-06 -0.0919143)
(2.0106e-05 -1.83966e-05 -0.0909267)
(1.9484e-05 -3.60658e-05 -0.0900861)
(1.91799e-05 -4.66242e-05 -0.0893413)
(1.90614e-05 -5.15721e-05 -0.0886524)
(1.90341e-05 -5.22605e-05 -0.0879915)
(1.90362e-05 -4.99345e-05 -0.0873412)
(1.90261e-05 -4.56898e-05 -0.086692)