/*--------------------------------*- C++ -*----------------------------------*\
| =========                 |                                                 |
| \\      /  F ield         | OpenFOAM: The Open Source CFD Toolbox           |
|  \\    /   O peration     | Version:  2.4.x                                 |
|   \\  /    A nd           | Web:      www.OpenFOAM.org                      |
|    \\/     M anipulation  |                                                 |
\*---------------------------------------------------------------------------*/
FoamFile
{
    version     2.0;
    format      ascii;
    class       volScalarField;
    location    "9980/fuel";
    object      wallHeatFlux;
}
// * * * * * * * * * * * * * * * * * * * * * * * * * * * * * * * * * * * * * //

dimensions      [1 0 -3 0 0 0 0];

internalField   uniform 0;

boundaryField
{
    extremos
    {
        type            calculated;
        value           uniform 0;
    }
    fuel_to_cladding
    {
        type            calculated;
        value           nonuniform List<scalar> 
15680
(
-24080.9
-33125.7
-44263.4
-55758.7
-66995.6
-77605.7
-87715.7
-96956.4
-105577
-113331
-120219
-126367
-131528
-135949
-139261
-141588
-142930
-143411
-142786
-141177
-138584
-135255
-130818
-125397
-119115
-112093
-104332
-95706.3
-86462.6
-76352.5
-65745.5
-54516.4
-43157.9
-31915.4
-22643.4
-23117.1
-31649.8
-42333
-53363.4
-64023
-74195
-83761.8
-92725.5
-100968
-108369
-115051
-120775
-125901
-129950
-133043
-135300
-136602
-136950
-136343
-134782
-132387
-129038
-124735
-119596
-113622
-106931
-99402.1
-91155.1
-82188.6
-72621.5
-62452.5
-51920
-40902.3
-30237.1
-21363.4
-25169.2
-34698.9
-46379.9
-58334.8
-70133.9
-81059.3
-91546.7
-101310
-110206
-118381
-125548
-131995
-137436
-142015
-145589
-147871
-149437
-149856
-149272
-147685
-145096
-141360
-136765
-131310
-124851
-117387
-109348
-100303
-90536.4
-80048.7
-68982.2
-57335.2
-45249.8
-33588.5
-23936.2
-23131
-32126.9
-43057.9
-54274.5
-65180.6
-75479.7
-85174.9
-94268
-102611
-110055
-116901
-122851
-127905
-132064
-135329
-137850
-139179
-139765
-139309
-137962
-135872
-132591
-128567
-123650
-117839
-111134
-103683
-95335.2
-86389
-76843.3
-66397.5
-55349.3
-44145.5
-33233.1
-24107.9
-25039.7
-34141.7
-45389.5
-57085.8
-68616.7
-79522.9
-89807.4
-99318.2
-108057
-116179
-123224
-129653
-134854
-139441
-142800
-145394
-146761
-147364
-147048
-145508
-143203
-139673
-135224
-130010
-123723
-116823
-108847
-99949.4
-90435.8
-80151.2
-69402.3
-57725.5
-45888.5
-34351.3
-24807.3
-25129.8
-34446.5
-46042.5
-57910.5
-69480.7
-80613.3
-91024.5
-100717
-109692
-117664
-124922
-131322
-136723
-141126
-144531
-146653
-148065
-148337
-147472
-145753
-143040
-139331
-134626
-128925
-122369
-114959
-106693
-97712.5
-88017.1
-77605.5
-66619.3
-55056.7
-43202.1
-31625.6
-22186.5
-26065
-35782.1
-47835.4
-60343.5
-72526.4
-83917.8
-94834
-104964
-114153
-122716
-130184
-136715
-142310
-146812
-150381
-152858
-154246
-154545
-153912
-152033
-149379
-145323
-140491
-134726
-127870
-120235
-111665
-102469
-92336.1
-81576
-70031.3
-58013
-45675.5
-33642.5
-23634.1
-23957.5
-33044.5
-44189.8
-55799
-66918.9
-77553.1
-87545.1
-96737.8
-105292
-113050
-120013
-126181
-131238
-135662
-138975
-141498
-142911
-143535
-143051
-141618
-139237
-136065
-131786
-126716
-120537
-113724
-106118
-97399.9
-88204.2
-78371
-67740
-56468.4
-45031.7
-33745.9
-24201.7
-26286.7
-36389.7
-48862.8
-61460.2
-73765.2
-85641.2
-96530.3
-106715
-116198
-124700
-132501
-139184
-144889
-149756
-153367
-156003
-157663
-158349
-157782
-156240
-153584
-149955
-145211
-139632
-132937
-125406
-116756
-107408
-97219.9
-86190.4
-74458.1
-62161.4
-49438
-37126.3
-26765.9
-25218.9
-34438.8
-45840
-57665.7
-69334
-80263
-90601.9
-100353
-109225
-117366
-124486
-130875
-136099
-140595
-143781
-146094
-147390
-147668
-147076
-145176
-142260
-138618
-133960
-128285
-121737
-114316
-106167
-97143.1
-87535
-77049.7
-66123.6
-54755.3
-42942.8
-31560.6
-21922.7
-24645.2
-33501.1
-44749.4
-56311.8
-67645
-78424.3
-88652.5
-98004
-106699
-114629
-121577
-127763
-133077
-137194
-140550
-142710
-144110
-144315
-143544
-141796
-139180
-135479
-130911
-125364
-118949
-111664
-103727
-95026.5
-85562.9
-75443.6
-64667.5
-53560.3
-42011.1
-30781.8
-21508.9
-25814.3
-35281.9
-47252.3
-59327.6
-71271.8
-82609.2
-93342.6
-103235
-112288
-120502
-128000
-134422
-140009
-144641
-148321
-150928
-152464
-152929
-152563
-151007
-148499
-145041
-140392
-134911
-128477
-121209
-112868
-103809
-93914.1
-83300.1
-71846.6
-60030.1
-47729.2
-35779
-25853.5
-24926
-34043.2
-45310
-57026
-68576.4
-79346.6
-89648.5
-99175.4
-108083
-116065
-123122
-129254
-134617
-139058
-142269
-144559
-145774
-146070
-145291
-143439
-140668
-136823
-132212
-126526
-120074
-112699
-104556
-95796.4
-86266.1
-75963.8
-65042.1
-53807.8
-42259.1
-30856.7
-21451
-23560.2
-32096.6
-42713.9
-53639.7
-64555
-74657.9
-84273.1
-93241.8
-101566
-109085
-115961
-121713
-126664
-130652
-133680
-135908
-137177
-137325
-136514
-134906
-132178
-128651
-124326
-119041
-112956
-106071
-98383.9
-90055
-81243.9
-71467.5
-61367.2
-50780.7
-39706.3
-29106.7
-20428.3
-25008.4
-34457.6
-45866.7
-57825.5
-69491.1
-80443.9
-90828
-100645
-109475
-117460
-124741
-131179
-136492
-140824
-144315
-146824
-148213
-148622
-148192
-146502
-143973
-140324
-135835
-130226
-123777
-116486
-108494
-99518.3
-89838.7
-79454.4
-68364
-56847.2
-44902.1
-33230.4
-23802.5
-33739.6
-46599.9
-62258.1
-78509.7
-94134.3
-109137
-123276
-136311
-148243
-159318
-169048
-177558
-184848
-190919
-195772
-199164
-201218
-201934
-201190
-199232
-195936
-191182
-185212
-178025
-169500
-159757
-148916
-136855
-123817
-109799
-94923.4
-79064.7
-62831.8
-47077.7
-34001.8
-24009.3
-33154
-44492.1
-55815.4
-67127.8
-77802.2
-87841.3
-97089.9
-105707
-113537
-120423
-126523
-131838
-136056
-139490
-141984
-143382
-143998
-143519
-142102
-139904
-136453
-132221
-127049
-121095
-114200
-106364
-97741.4
-88489.9
-78450.7
-67779.6
-56632.4
-45007.1
-33845.9
-24407
-22618.1
-31314.5
-41836.8
-52679.9
-63345.3
-73334.7
-82818.1
-91463.3
-99606
-106913
-113553
-119360
-124335
-128310
-131622
-133770
-135088
-135576
-135069
-133899
-131568
-128407
-124250
-119430
-113613
-106964
-99649.9
-91502.5
-82687.6
-73204
-63384.2
-52726.2
-41728.5
-31224
-22380.4
-26650.8
-36475
-48702.8
-61368.5
-73568.8
-85458.8
-96286
-106657
-116121
-124527
-132331
-138929
-144775
-149418
-153008
-155698
-157337
-157776
-157164
-155504
-152793
-148883
-144223
-138212
-131450
-123787
-115222
-105753
-95529.3
-84550.7
-72815.4
-60472.4
-47821.2
-35614.1
-25359
-27441.6
-37789.6
-50404.5
-63460
-76198.9
-88168.7
-99676.8
-110117
-119948
-128867
-136571
-143669
-149554
-154379
-158145
-160701
-162199
-162640
-161873
-160048
-157168
-153078
-148084
-141880
-134769
-126751
-117824
-107987
-97390.9
-86034.5
-73916.1
-61337.7
-48297
-35551.4
-25074.7
-24240
-33103.6
-44110
-55581.9
-66683.8
-77299.4
-87311.8
-96483.6
-105056
-112790
-119808
-125870
-130978
-135132
-138453
-140701
-141998
-142105
-141500
-139825
-137079
-133502
-128974
-123613
-117301
-110154
-102293
-93715.6
-84421.1
-74528
-63915.5
-52821.1
-41601.5
-30494
-21291.3
-25568.8
-34806.1
-46377.9
-58404.6
-70106.9
-81331.6
-91768.8
-101421
-110446
-118689
-125994
-132363
-137797
-142452
-145861
-148493
-149881
-150492
-150016
-148452
-146113
-142530
-138015
-132567
-126186
-118871
-110621
-101747
-91935.7
-81498.3
-70277.1
-58582.9
-46570.1
-34548.8
-24862.9
-26048
-35147.1
-46995
-58990.4
-70649.4
-81975.6
-92646.9
-102503
-111547
-119941
-127199
-133649
-139127
-143635
-146850
-149258
-150536
-150847
-150028
-148081
-145328
-141447
-136436
-130781
-124158
-116403
-108163
-98951.7
-89091.9
-78582.3
-67259.4
-55607.9
-43625.9
-31960.1
-22394.1
-26101.6
-35810.6
-47932
-60361.4
-72455.4
-84055.8
-94842.3
-104979
-114306
-122663
-130051
-136795
-142410
-147060
-150744
-153303
-154898
-155531
-155200
-153584
-151006
-147465
-142960
-137331
-130737
-123339
-114974
-105804
-95664
-84877.2
-73441.7
-61194.4
-48779
-36516.3
-26344
-25076.8
-34626.5
-46331.9
-58167.1
-69846.4
-81083.9
-91448.7
-101088
-110003
-118195
-125377
-131838
-137290
-141734
-145171
-147602
-149172
-149736
-149151
-147417
-144822
-141367
-136907
-131296
-124824
-117488
-109433
-100512
-90725.9
-80216.3
-69126.6
-57599.6
-45489
-33803.4
-24130.9
-26967.2
-36794
-49169.7
-61957.2
-74447.9
-86218.4
-97414.3
-107753
-117237
-126009
-133644
-140428
-146219
-151018
-154684
-157075
-158618
-159030
-158311
-156461
-153481
-149512
-144554
-138606
-131667
-123879
-115099
-105467
-94983.1
-83929.1
-72162
-59822.1
-47049.4
-34694.6
-24463.1
-25960.5
-35313.9
-47054.9
-59286.9
-71254.7
-82456.4
-93147.9
-103078
-112124
-120411
-127816
-134339
-139981
-144490
-148120
-150746
-152366
-152858
-152471
-150956
-148438
-144916
-140390
-134861
-128452
-121038
-112869
-103818
-93884.5
-83319.2
-71868.4
-60035
-47691
-35717.2
-25753.2
-25701.7
-35305.9
-47132.1
-59469.9
-71401.4
-82799
-93402.7
-103346
-112499
-120864
-128179
-134706
-140317
-144881
-148266
-150736
-152162
-152542
-151877
-150169
-147416
-143618
-138776
-133020
-126349
-118893
-110520
-101361
-91283.6
-80679.6
-69416.6
-57493.1
-45300.9
-33363.2
-23517.8
-21859.2
-30228.2
-40527.1
-50961.9
-61087.9
-70758.8
-79827.8
-88296.9
-96167.5
-103292
-109670
-115304
-119897
-123895
-127001
-129217
-130692
-130979
-130674
-129331
-127248
-124275
-120413
-115660
-110314
-104076
-96945.3
-89219.2
-80747.6
-71678.4
-62010.3
-51741.9
-41169.6
-30888.2
-22388.8
-25475.1
-35364.4
-47357.6
-59618
-71443
-82836.4
-93518.8
-103492
-112477
-120896
-128329
-134918
-140380
-145000
-148637
-151291
-152822
-153373
-152802
-151391
-148999
-145486
-140991
-135515
-129056
-121754
-113609
-104619
-94642.5
-83960
-72570
-60752.7
-48365.2
-36392.3
-26243.1
-20376
-28039.6
-37607.3
-47309.8
-56855.6
-65805.6
-74309.5
-82221.9
-89397.1
-95983.3
-101981
-107098
-111628
-115278
-118049
-120089
-121397
-121827
-121527
-120497
-118442
-115657
-111994
-107747
-102621
-96909.4
-90317.3
-82990.9
-75370.2
-66866.2
-57771.8
-48232.6
-38541
-28842.5
-20754.5
-25228.5
-34560.5
-46100.2
-58217.9
-69879.8
-80941.6
-91406.1
-101128
-110108
-118200
-125406
-131725
-137160
-141416
-144935
-147277
-148588
-148870
-148124
-146496
-143692
-140006
-135292
-129695
-123068
-115705
-107457
-98471.2
-88746.5
-78281.6
-67370.7
-55716.6
-43908.5
-32092.3
-22633.1
-24098
-32967.4
-43928
-55325.7
-66562.3
-77039.8
-87212
-96480
-104846
-112610
-119625
-125591
-130809
-134979
-138252
-140480
-141662
-141949
-141192
-139540
-136844
-133253
-128618
-123237
-116960
-109935
-102013
-93342.3
-84071.2
-74198.9
-63724.1
-52645.3
-41410.6
-30318.2
-21168.2
-25264
-34250.6
-45369.7
-57145.7
-68642.4
-79461
-89872.5
-99342.9
-108142
-116271
-123329
-129585
-134906
-139159
-142344
-144597
-145917
-146038
-145227
-143485
-140678
-136805
-132269
-126533
-120131
-112662
-104659
-95720.4
-86112.9
-75968.8
-65019.3
-53798
-42169.3
-30934.6
-21565.9
-25462.9
-34349.7
-45718
-57539.7
-68882.5
-79905.8
-90300.7
-99913.7
-108746
-116800
-123921
-130108
-135520
-139846
-143086
-145396
-146623
-146920
-145979
-144266
-141469
-137590
-132782
-127200
-120534
-113248
-105186
-96192.4
-86576.1
-76336.4
-65316.2
-53980.6
-42327.9
-30822.7
-21643.8
-24752.2
-33945.4
-45566.7
-57173.2
-68625.1
-79494.9
-89785.6
-99355.7
-108207
-116054
-123327
-129598
-135012
-139281
-142694
-145107
-146665
-147082
-146358
-144923
-142347
-138774
-134202
-128918
-122492
-115352
-107355
-98355
-88925.3
-78634.5
-67624.6
-56180.5
-44443.7
-32985.6
-23526.3
-26049.5
-35872.3
-47846.8
-60383.9
-72475.9
-83982.2
-94761.5
-104816
-114003
-122469
-130070
-136663
-142249
-146829
-150692
-153262
-154829
-155248
-154951
-153508
-150919
-147326
-142586
-137129
-130525
-123058
-114585
-105536
-95334.4
-84554.8
-73051.9
-60968
-48589.4
-36202.2
-26112.8
-23918.8
-33101.5
-44106.3
-55709.1
-66841.7
-77507.7
-87404.2
-96686.2
-105202
-112954
-119942
-126015
-131174
-135572
-138905
-141326
-142835
-143280
-142815
-141592
-139154
-135957
-131697
-126678
-120747
-113750
-106144
-97775.2
-88490.5
-78441.1
-67930.9
-56805.7
-45216.3
-34077
-24609.3
-23807.7
-32185
-42681.9
-53774.7
-64704.7
-74865.8
-84565.6
-93653.6
-101827
-109240
-116197
-121940
-127075
-131302
-134620
-136726
-138229
-138824
-138210
-136840
-134565
-131382
-127141
-122144
-116239
-109426
-101854
-93675
-84584.3
-74884.5
-64574.1
-53803.8
-42723.6
-31787.7
-22972.3
-26069.7
-35997.1
-48165.5
-60619.2
-72760.2
-84291.6
-95216.5
-105387
-114504
-123170
-130485
-137351
-143019
-147639
-151362
-154039
-155520
-156107
-155649
-154147
-151600
-148159
-143373
-137992
-131264
-123789
-115416
-106293
-96269.6
-85344.6
-73816.5
-61683.6
-49093.9
-36795.7
-26590
-26139.7
-36139.3
-48154.3
-60779.1
-72923.1
-84434.2
-95315.5
-105413
-114729
-123108
-130708
-137374
-142951
-147751
-151463
-154089
-155628
-156394
-155763
-154358
-151868
-148293
-143789
-138042
-131520
-123910
-115679
-106358
-96257.1
-85531.6
-73868
-61732.3
-49122.3
-36815.5
-26682.6
-26449.6
-36385.7
-48577.8
-61180.4
-73487.3
-85218.5
-96093.3
-106398
-115850
-124309
-131919
-138680
-144310
-148952
-152605
-154988
-156527
-156796
-156221
-154378
-151549
-147593
-142652
-136724
-129808
-122047
-113437
-103980
-93672.1
-82796.8
-71210.8
-58912.3
-46465.8
-34152.6
-24097.2
-26483
-36133.4
-48287
-60705
-72831.7
-84530.8
-95525.8
-105539
-114993
-123468
-130966
-137628
-143315
-147889
-151349
-153837
-155074
-155478
-154493
-152816
-149750
-145713
-140704
-134863
-128048
-120121
-111499
-102179
-92022.2
-81027
-69610.4
-57491.7
-45087.6
-33094
-23046
-23522.6
-32585.2
-43693.4
-54924.7
-65870.6
-76397.5
-86233.4
-95243.5
-103704
-111341
-118156
-124287
-129324
-133678
-136940
-139384
-140737
-141272
-140991
-139620
-137295
-134154
-129922
-124872
-119004
-112181
-104537
-96345.7
-87195.8
-77496.6
-66973
-55897.3
-44541.6
-33452.1
-24272.9
-23746.2
-32874.2
-44049.4
-55357.5
-66507.5
-77061.3
-87021.7
-96243.9
-104582
-112479
-119348
-125336
-130592
-134822
-138174
-140649
-142101
-142675
-142081
-140757
-138411
-135042
-130797
-125675
-119529
-112798
-105041
-96550.2
-87325.2
-77364.6
-66813.9
-55671.6
-44376.5
-33073.4
-23819.1
-23381.7
-32490
-43291.9
-54506.9
-65426.6
-75769.9
-85539.6
-94595.6
-103081
-110572
-117353
-123283
-128363
-132594
-135834
-138368
-139628
-140184
-139893
-138471
-136062
-132805
-128702
-123609
-117668
-110878
-103380
-95031.6
-85972.9
-76203
-65720.7
-54950.5
-43464.2
-32538.4
-23450.9
-26648.6
-36966.4
-49363.8
-62228.9
-74598.2
-86475.6
-97703.2
-107961
-117573
-126219
-133900
-140778
-146532
-151324
-155155
-157864
-159613
-160082
-159592
-158143
-155574
-151886
-147238
-141470
-134901
-127210
-118557
-109100
-98999.5
-87771.9
-75898
-63376
-50525.6
-37988
-27532.5
-27782.5
-38238.6
-51255
-64557.9
-77545.1
-89766.2
-101376
-112074
-122014
-131045
-139169
-146236
-152246
-157202
-161102
-163949
-165743
-166333
-165872
-164207
-161641
-157722
-152900
-146875
-140098
-132115
-123227
-113432
-102731
-91121.2
-78903.6
-65925.1
-52486.1
-39340.4
-28453.6
-23682.8
-32644.1
-43600.2
-55005.6
-65936.7
-76551.4
-86234.8
-95452.3
-103742
-111415
-118317
-124295
-129504
-133791
-137156
-139446
-140970
-141420
-140950
-139562
-137407
-134180
-129878
-124811
-118822
-111911
-104385
-95936
-86715.9
-77032
-66420.7
-55496.9
-44104.7
-33013
-23763.3
-24986.9
-34384.8
-45936.9
-57835.5
-69541.9
-80517.7
-90765.9
-100469
-109269
-117346
-124702
-131157
-136352
-140829
-144227
-146728
-148152
-148680
-148131
-146507
-143987
-140391
-135899
-130329
-124043
-116677
-108593
-99787.9
-90081.5
-79652.4
-68679.6
-57161.5
-45276.4
-33382.8
-23825.4
-24102.1
-33267.1
-44381.7
-55809.4
-67062.4
-77653.3
-87748.6
-97023.5
-105480
-113282
-120267
-126274
-131630
-135845
-139248
-141511
-142963
-143440
-142943
-141472
-139027
-135608
-131051
-126008
-119827
-112669
-105023
-96234.9
-86957
-77024.7
-66273.4
-55027.9
-43613.1
-32353.6
-23045.8
-26576.5
-36884.9
-49299.7
-62001.8
-74388.6
-86161.1
-97322.2
-107571
-117213
-125795
-133470
-140238
-146101
-150907
-154659
-157357
-159001
-159592
-158979
-157465
-154898
-151128
-146456
-140730
-133950
-126265
-117675
-108330
-98077.7
-86916.5
-74996.2
-62617.6
-49929.9
-37233.3
-26948.2
-23100.1
-31944.1
-42669.3
-53696.5
-64397.3
-74774.9
-84200.9
-93150.7
-101468
-108997
-115580
-121534
-126544
-130769
-134052
-136236
-137794
-138255
-137933
-136514
-134313
-131171
-127089
-122224
-116417
-109668
-102291
-94126
-85173.6
-75747.1
-65372.7
-54679
-43506.6
-32641.6
-23502
-25278.6
-34404.5
-46021.7
-57981.8
-69572.6
-80618.9
-90944.6
-100731
-109622
-117798
-124902
-131294
-136616
-141048
-144413
-146710
-148120
-148285
-147564
-145777
-142924
-139185
-134558
-129043
-122283
-114990
-106807
-97731.6
-87942.2
-77615.8
-66751
-54989.1
-43399.5
-31801.8
-22159.9
-22774.3
-31217.3
-41595.7
-52447.9
-62964.9
-73150.1
-82519.2
-91236.6
-99303.9
-106722
-113169
-118968
-123797
-127819
-131033
-133280
-134559
-135033
-134540
-132919
-130817
-127425
-123389
-118385
-112737
-105958
-98694.9
-90622.7
-81740.5
-72209
-62189
-51841.1
-41001.3
-30316
-21729.5
-20818.7
-28759
-38545.2
-48487.5
-58082.3
-67332.6
-76072
-84133.7
-91687.8
-98398.1
-104434
-109629
-114150
-118000
-120842
-123013
-124346
-124841
-124498
-123317
-121299
-118274
-114748
-110215
-105011
-99135.9
-92251.1
-85029.8
-77134.2
-68226.2
-59147.2
-49390.1
-39290.4
-29520.6
-21429.5
-23932.1
-32890.2
-43950
-55369.2
-66528.9
-77183.7
-87087.7
-96367.3
-104776
-112562
-119480
-125530
-130712
-134904
-138230
-140566
-141914
-142150
-141646
-140030
-137427
-133835
-129380
-124184
-117875
-110948
-103030
-94616.7
-85210.1
-75305.7
-64778.3
-53750.3
-42344.2
-31178.8
-21992.2
-27007.5
-36946.4
-49321.1
-62088.8
-74572.3
-86503.2
-97612.2
-108038
-117646
-126302
-134143
-140898
-146704
-151427
-155202
-157758
-159369
-159762
-159210
-157578
-154729
-150935
-145925
-139968
-133064
-125213
-116549
-106935
-96506.1
-85396.7
-73605.3
-61130.3
-48377.1
-35751.3
-25426.5
-20254.5
-28069.5
-37571.1
-47400
-57049.4
-65843.1
-74293.1
-82400.9
-89489.5
-96238.3
-102140
-107194
-111573
-115276
-118134
-120318
-121489
-121987
-121642
-120455
-118425
-115722
-112007
-107617
-102553
-96644
-90058.8
-82796.4
-75025.3
-66575.1
-57444.6
-47971.3
-38323.2
-28668
-20700.9
-26323.5
-35834.5
-47709.2
-60163.6
-72249.8
-83615
-94500
-104432
-113649
-122154
-129591
-136199
-141859
-146455
-150104
-152809
-154333
-154912
-154430
-153004
-150399
-146849
-142238
-136682
-130181
-122615
-114340
-105117
-95182.3
-84416
-72816.7
-60857.4
-48298.6
-36206.4
-26122.6
-24794.3
-33977.5
-45170.1
-56971.1
-68449.7
-79298.1
-89674.7
-99115.4
-108088
-115817
-123080
-129257
-134504
-138822
-142212
-144518
-145742
-146040
-145255
-143390
-140754
-137191
-132392
-126975
-120476
-113048
-105156
-96178
-86578.9
-76512.5
-65667.2
-54196.5
-42564.3
-31235
-21916.8
-27642.7
-37970.2
-50902.4
-63972.3
-76875.6
-88999.9
-100502
-111232
-120882
-129915
-137872
-144908
-150869
-155756
-159725
-162467
-164292
-164740
-164424
-162730
-160121
-156287
-151383
-145560
-138666
-130699
-121811
-112155
-101577
-90074
-77953.2
-64904.8
-51849.6
-38785.3
-27865
-25067.8
-34504.7
-46072
-58053.6
-69737.9
-80842.6
-91085
-100753
-109705
-117801
-125040
-131425
-136812
-141347
-144743
-147288
-148696
-149254
-148533
-147104
-144398
-140841
-136433
-130889
-124350
-117101
-108998
-100183
-90369.3
-79983.7
-68882.3
-57348.7
-45380.9
-33690.4
-23989.2
-24998.1
-34254.5
-45777.5
-57688.5
-69320
-80273.3
-90819.3
-100290
-109357
-117353
-124545
-130801
-136256
-140776
-144230
-146616
-148070
-148458
-147781
-146173
-143634
-140029
-135493
-130024
-123488
-116286
-108150
-99211.2
-89603.3
-79191.2
-68241.1
-56751.4
-44720.3
-33216.7
-23445.2
-24476
-33311.9
-44386.5
-55966.8
-67189.4
-77884.8
-87882.5
-97184.9
-105793
-113710
-120588
-126777
-132103
-136394
-139825
-142222
-143587
-144266
-143567
-142355
-139767
-136492
-132186
-127019
-120647
-113931
-106008
-97394.6
-88089.4
-78091.4
-67399.3
-56011.5
-44444.6
-33215.4
-23706.9
-22242.8
-30503.4
-40816.3
-51460
-61749.2
-71515.1
-80760.5
-89315.3
-97353
-104359
-110851
-116484
-121261
-125182
-128248
-130459
-131988
-132491
-132141
-130767
-128711
-125630
-121695
-116906
-111263
-104935
-97750.3
-90051.4
-81494
-72248.5
-62485.3
-52202.9
-41571.3
-31103.8
-22517.8
-25241.9
-34357.7
-45738.8
-57738.9
-69221.3
-80316.5
-90647.6
-100343
-109152
-117202
-124494
-130776
-136176
-140567
-143951
-146202
-147447
-147813
-147047
-145150
-142500
-138593
-133933
-128266
-121720
-114418
-106234
-97293.3
-87594.7
-77263.3
-66424.1
-54822.9
-43089.5
-31601.1
-22126.3
-26251.1
-36218.1
-48420.4
-61089.4
-73103.4
-84948.5
-95663.7
-105894
-115320
-123782
-131442
-137981
-143720
-148499
-152159
-154701
-156285
-156752
-156423
-154657
-152095
-148417
-143621
-137868
-131156
-123486
-114856
-105745
-95351.3
-84475.1
-72954.6
-60627.7
-48133.9
-35791.9
-25526.4
-24213.7
-33450.5
-44674.2
-56191.2
-67389.4
-78118.3
-88226.9
-97563.5
-106130
-114081
-121110
-127219
-132408
-136832
-140185
-142619
-144137
-144586
-144271
-142734
-140434
-137066
-132780
-127578
-121611
-114573
-106922
-98197.1
-88857.6
-78748.9
-68176.8
-56832.4
-45174.6
-33816
-24446.3
-25520.4
-34928.1
-46782.2
-58910.8
-70738.4
-82123.9
-92636.5
-102279
-111485
-119680
-127008
-133471
-138924
-143514
-147097
-149528
-150954
-151518
-150788
-149198
-146602
-143001
-138395
-132639
-126164
-118682
-110479
-101267
-91622.1
-80964.7
-69727.1
-57907.6
-45793
-33959.1
-24138.8
-25040.2
-33965.9
-45212.6
-56994.5
-68353.3
-79292.6
-89540.7
-98962.7
-107697
-115746
-122835
-129104
-134415
-138906
-142305
-144886
-146375
-146910
-146491
-145119
-142657
-139378
-134871
-129684
-123404
-116443
-108387
-99647.1
-90222.2
-79973.9
-69175.1
-57686.9
-45918.7
-34416.5
-24824.7
-26484.2
-36344
-48475.2
-61162.7
-73409.7
-85077.2
-96025.3
-106256
-115630
-124289
-131950
-138614
-144282
-148955
-152491
-155033
-156439
-156853
-156274
-154419
-151571
-147589
-142757
-136931
-129969
-122155
-113631
-104109
-93874.9
-82926.4
-71262.3
-59023.6
-46635.9
-34382.5
-24259.4
-26118.4
-35621.8
-47551.2
-59722.5
-71754.1
-83264.2
-93870.8
-103961
-113152
-121573
-128968
-135596
-141073
-145527
-148959
-151498
-152888
-153003
-152354
-150429
-147486
-143651
-138796
-132920
-126024
-118490
-109933
-100737
-90771.3
-79907.9
-68657.5
-56634.1
-44476.4
-32695.3
-22828.3
-26780.9
-36535.7
-48809.8
-61448.6
-73822.3
-85554.6
-96522.1
-106854
-116298
-124856
-132529
-139318
-145098
-149743
-153507
-156138
-157888
-158506
-157866
-156347
-153823
-150167
-145506
-139838
-133036
-125480
-116914
-107464
-97256.1
-86288.4
-74559.6
-62194.3
-49443.4
-37063.4
-26697.5
-25781.8
-35365.4
-47419
-59634.7
-71661.1
-82969.8
-93741
-103623
-112971
-121255
-128654
-135169
-140800
-145195
-148885
-151340
-152560
-153077
-152361
-150412
-147760
-144051
-139109
-133287
-126583
-119173
-110704
-101351
-91288.6
-80694.1
-69388.5
-57547.2
-45345.4
-33312.1
-23395.5
-23019.2
-31270.6
-41612.7
-52265
-62907.1
-72894.9
-82393
-91079.9
-99119
-106511
-113097
-118714
-123688
-127695
-130899
-133138
-134574
-134885
-134555
-133101
-130845
-127626
-123443
-118618
-112667
-106235
-98835.5
-90630.2
-81940.4
-72603.6
-62457.2
-52145.4
-41181.9
-30695.4
-21815.7
-23450.8
-31990.7
-42889.9
-54091.3
-64807.4
-75042
-84639.7
-93918.3
-102090
-109629
-116380
-122184
-127359
-131433
-134721
-137066
-138468
-139087
-138607
-137186
-134981
-131835
-127748
-122875
-116902
-110301
-102755
-94578.6
-85613.1
-75857.4
-65625.7
-54758.7
-43570
-32689.1
-23694.2
-20803.3
-28851.9
-38497.4
-48452.2
-58075.4
-67531
-76177.9
-84178.9
-91535.7
-98409.8
-104481
-109750
-114218
-118045
-120913
-122981
-124250
-124721
-124393
-123108
-121185
-118303
-114623
-110144
-105026
-98947
-92387.9
-84866.3
-76862.7
-68215.6
-58923.7
-49146.1
-39202.6
-29251.8
-21221.4
-23034.1
-31366
-42000
-52929
-63539
-73679
-83043.3
-91942.4
-100223
-107580
-114166
-119984
-124879
-128854
-131907
-134041
-135256
-135398
-134775
-133233
-130774
-127396
-122945
-117882
-111746
-105151
-97479.6
-89501.4
-80599.6
-71080.8
-60943.7
-50494.8
-39578.3
-29116.3
-20340.6
-24707.5
-34051.3
-45371.9
-57290.8
-68738.8
-79566.5
-89930
-99525.2
-108354
-116265
-123411
-129642
-135110
-139511
-142999
-145574
-146931
-147530
-147064
-145687
-143246
-139894
-135478
-130302
-124212
-117057
-108986
-100305
-90860
-80649.3
-69671.8
-58231.6
-46326.4
-34718.8
-25089.9
-30792
-42410.2
-56805.3
-71623.4
-85986.5
-99605.2
-112336
-124182
-135291
-145225
-154279
-162013
-168576
-174115
-178484
-181684
-183715
-184433
-183837
-182073
-178997
-174900
-169342
-162909
-155014
-146242
-136299
-125330
-113481
-100749
-87134.9
-72634.8
-57980.6
-43463.3
-31430.8
-28461.2
-39253.7
-52569.1
-66343.6
-79629.1
-92112.4
-104114
-115003
-125255
-134398
-142907
-149993
-156130
-161321
-165407
-168231
-169951
-170570
-170086
-168501
-165656
-161708
-156658
-150506
-143249
-135203
-126052
-115794
-104902
-93058.4
-80420.2
-67143.7
-53385
-40092.2
-28848.5
-24518.8
-33508.5
-44815.1
-56606.5
-67887.2
-78660.9
-88930.3
-98365.1
-107133
-114904
-122010
-128120
-133568
-137856
-141317
-143785
-145262
-145748
-145242
-143912
-141426
-138280
-133977
-128682
-122561
-115612
-107834
-99227
-89789.4
-79852.1
-68915.5
-57642.3
-45864.4
-34244.3
-24941.9
-25172.9
-34654.6
-46017.9
-57999
-69652.6
-80824.4
-91201.5
-100944
-109738
-117900
-125116
-131545
-136872
-141256
-144697
-147039
-148282
-148584
-147787
-146051
-143217
-139443
-134728
-129071
-122473
-115089
-106919
-97804.1
-88216.1
-77680.9
-66827.7
-55181.8
-43372.2
-31712
-22251.6
-23456.2
-32215.9
-43191.9
-54312.9
-65263.9
-75729.8
-85395
-94420.9
-102809
-110401
-117199
-123204
-128098
-132359
-135670
-138031
-139444
-140067
-139584
-138311
-136091
-132764
-128648
-123741
-117885
-111237
-103638
-95244.7
-86374.9
-76709.4
-66246.8
-55462.2
-44035.8
-33078.3
-23861
-21619.3
-29779.5
-39740.2
-50232.1
-60169.8
-69738.1
-78758.1
-87050.9
-94798.8
-101822
-107941
-113518
-118192
-121964
-125015
-127165
-128235
-128766
-128217
-126768
-124601
-121534
-117387
-112701
-107114
-100806
-93775.8
-86023.3
-77546.9
-68526.6
-58961
-49029.8
-38731.1
-28787.1
-20283.2
-24719.2
-33378.3
-44475.2
-55884.6
-67119.7
-77857
-87773
-97196.3
-105802
-113591
-120566
-126726
-132073
-136282
-139679
-142264
-143551
-144353
-143694
-142388
-139947
-136696
-132310
-127275
-121104
-114120
-106324
-97712.8
-88449.9
-78370.6
-67799.6
-56409.2
-44849.7
-33445.1
-24152.2
-25059
-34302.5
-45888
-57821.2
-69380.4
-80388.1
-90666.3
-100398
-109223
-117324
-124520
-130814
-136024
-140513
-143922
-146249
-147496
-147845
-147294
-145484
-142776
-139169
-134302
-128897
-122230
-114843
-106735
-97904.5
-88169.6
-77890.9
-66886.2
-55334.6
-43414.9
-32029.8
-22444.9
-27130.2
-37354.6
-50050.5
-62868.4
-75536.1
-87504.8
-98915.8
-109357
-118969
-127753
-135572
-142564
-148318
-153248
-157078
-159673
-161445
-162120
-161561
-159905
-157290
-153716
-149046
-143139
-136410
-128581
-119928
-110310
-99865.5
-88730.2
-76627.1
-63968
-51026.4
-38351.9
-27736.4
-26011.1
-35747.2
-47740.2
-60204.8
-72008.5
-83642
-94459.3
-104301
-113654
-122035
-129607
-136046
-141516
-146179
-149712
-152117
-153393
-153864
-153047
-151264
-148354
-144479
-139476
-133667
-126892
-119149
-110760
-101400
-91555.3
-80737.6
-69269.5
-57311.2
-45022.7
-33049.6
-23173.2
-22140.6
-30523.2
-40797.7
-51249.4
-61690.9
-71553.7
-80650.4
-89173.4
-97124
-104313
-110743
-116412
-121133
-125097
-128113
-130183
-131497
-131865
-131098
-129766
-127110
-123888
-119910
-114986
-109306
-102679
-95482.3
-87526.9
-78811
-69523.7
-59853.6
-49609.3
-39169.3
-28721.7
-20167.7
-25477.5
-34871.7
-46843.3
-58799.4
-70744.1
-81871.1
-92507.3
-102169
-111345
-119549
-126784
-133212
-138833
-143165
-146854
-149416
-151013
-151646
-150992
-149537
-147117
-143734
-139225
-133751
-127312
-120067
-111855
-102998
-93171.3
-82696.6
-71411.1
-59474.7
-47370.2
-35580.6
-25560.2
-25582
-34953.8
-46484.6
-58408.4
-70185.3
-81275.5
-91817.7
-101678
-110723
-118954
-126236
-132571
-137958
-142400
-145761
-148041
-149513
-149771
-148950
-147050
-144208
-140422
-135558
-129885
-123132
-115840
-107466
-98279.7
-88551.5
-78144.5
-66921.9
-55288.6
-43513.8
-31866.6
-22108.8
-22625.2
-31338.7
-41816.7
-52814.6
-63446.2
-73359.5
-82735.1
-91574.8
-99702.6
-106942
-113650
-119471
-124230
-128459
-131805
-134090
-135492
-136012
-135473
-134052
-131927
-128744
-124855
-120083
-114251
-107712
-100289
-92333.4
-83491.2
-74115.4
-64027.6
-53403.4
-42418.5
-31780.8
-23087.3
-26167.2
-35517.8
-47272.6
-59496.2
-71385.8
-82783.8
-93532.1
-103311
-112605
-120932
-128295
-134854
-140450
-144922
-148272
-150661
-151929
-152237
-151425
-149492
-146601
-142750
-137778
-132007
-125275
-117581
-109084
-99784.6
-89841.5
-79253.7
-68019.7
-55977.1
-43928.2
-32192.9
-22540.9
-28889.4
-39980.4
-53642.2
-67471.2
-80917.2
-93799.7
-105753
-116963
-127249
-136612
-145052
-152388
-158618
-163930
-167956
-170879
-172702
-173424
-172863
-171201
-168256
-164395
-159250
-153188
-146024
-137573
-128386
-118094
-106880
-94926.7
-82232.4
-68610.8
-54797.4
-40974.1
-29723.4
-25023.2
-34245.2
-45758.4
-57640.9
-69319.8
-80222.5
-90544.1
-100287
-109068
-117274
-124329
-130619
-136143
-140521
-143943
-146220
-147735
-148105
-147331
-145796
-142925
-139485
-134708
-129361
-122677
-115420
-107399
-98419.9
-88865.9
-78352.3
-67452.5
-55973.2
-44104.1
-32418.4
-22833.3
-26253.1
-36272.6
-48396.1
-60889.1
-72984.8
-84494.4
-95420.9
-105767
-115148
-123375
-131218
-137908
-143447
-148028
-151652
-154318
-155837
-156207
-155623
-154083
-151397
-147563
-142773
-137028
-130325
-122664
-114237
-104657
-94501
-83766.3
-72067.7
-59979.9
-47308.6
-35205.4
-24823.5
-28336
-39033
-52251.8
-65816
-79004.6
-91459.4
-103365
-114180
-124450
-133452
-141731
-148926
-155038
-160067
-164015
-167064
-168852
-169380
-169009
-167199
-164491
-160704
-155658
-149711
-142504
-134576
-125385
-115471
-104652
-92746.7
-80114.5
-66934.7
-53385.8
-40008.2
-28973
-21244.9