/*--------------------------------*- C++ -*----------------------------------*\
| =========                 |                                                 |
| \\      /  F ield         | OpenFOAM: The Open Source CFD Toolbox           |
|  \\    /   O peration     | Version:  2.4.x                                 |
|   \\  /    A nd           | Web:      www.OpenFOAM.org                      |
|    \\/     M anipulation  |                                                 |
\*---------------------------------------------------------------------------*/
FoamFile
{
    version     2.0;
    format      ascii;
    class       volScalarField;
    location    "9990/coolant";
    object      epsilon;
}
// * * * * * * * * * * * * * * * * * * * * * * * * * * * * * * * * * * * * * //

dimensions      [0 2 -3 0 0 0 0];

internalField   nonuniform List<scalar> 
109760
(
0.00655272
0.00200472
0.000781585
0.000364984
0.000195498
0.000116907
7.71188e-05
5.62731e-05
4.60591e-05
4.27838e-05
4.46915e-05
5.0778e-05
6.02371e-05
7.22432e-05
8.59361e-05
0.000100504
0.000115269
0.000129734
0.000143579
0.000156626
0.000168802
0.000180109
0.000190591
0.000200317
0.000209367
0.000217819
0.000225744
0.00023321
0.000240284
0.000247033
0.000253518
0.00025977
0.000265766
0.000271427
0.000276494
0.00656672
0.00200966
0.00080848
0.000426084
0.000300949
0.000275887
0.000294431
0.000330784
0.000371814
0.000411096
0.000446005
0.000475946
0.0005013
0.000522757
0.000541068
0.000556888
0.000570778
0.000583189
0.000594476
0.000604917
0.000614731
0.000624082
0.000633098
0.000641865
0.000650436
0.000658827
0.000667033
0.000675059
0.000682955
0.000690818
0.000698753
0.000706749
0.000714588
0.00072187
0.000728013
0.0133107
0.00674368
0.00469385
0.00396389
0.00365992
0.0035182
0.00345207
0.00342532
0.00342004
0.00342662
0.0034392
0.00345347
0.00346624
0.00347495
0.00347787
0.00347397
0.00346293
0.00344502
0.00342093
0.00339163
0.00335819
0.00332169
0.00328312
0.00324336
0.00320314
0.00316302
0.00312339
0.00308448
0.00304645
0.00300953
0.00297419
0.0029414
0.00291214
0.00288821
0.00286689
0.00692878
0.00239524
0.0013968
0.00118455
0.00116638
0.00119222
0.00122318
0.00125029
0.00127283
0.00129192
0.00130869
0.00132405
0.00133865
0.00135292
0.00136718
0.00138163
0.00139639
0.00141153
0.00142709
0.00144309
0.00145951
0.00147636
0.00149363
0.00151128
0.00152924
0.00154738
0.00156554
0.00158364
0.00160181
0.00162039
0.00163973
0.00165978
0.0016797
0.00169774
0.00171242
0.0134165
0.0064513
0.004407
0.00371366
0.00343237
0.00330338
0.00324317
0.00321919
0.00321615
0.00322568
0.00324332
0.00326651
0.00329367
0.00332381
0.00335617
0.00339011
0.00342502
0.00346029
0.00349532
0.0035296
0.00356268
0.00359421
0.00362397
0.0036518
0.00367766
0.00370154
0.00372349
0.00374357
0.00376189
0.00377869
0.00379442
0.0038098
0.00382577
0.00384204
0.00386375
0.00656236
0.00200496
0.000800116
0.000412584
0.000280936
0.000249108
0.000262168
0.000295116
0.00033462
0.000373621
0.000408908
0.000439505
0.000465555
0.000487652
0.000506503
0.000522777
0.000537047
0.000549788
0.00056138
0.000572119
0.000582233
0.000591898
0.000601246
0.000610376
0.000619346
0.000628187
0.000636912
0.000645546
0.000654155
0.000662837
0.000671678
0.000680624
0.000689391
0.000697541
0.000704176
0.00655209
0.00199753
0.000776716
0.000361718
0.000192817
0.000113804
7.26289e-05
4.92683e-05
3.50811e-05
2.59753e-05
1.98586e-05
1.5591e-05
1.25168e-05
1.02414e-05
8.51757e-06
7.18561e-06
6.13924e-06
5.30629e-06
4.6372e-06
4.09788e-06
3.66547e-06
3.32564e-06
3.07092e-06
2.89972e-06
2.8158e-06
2.82787e-06
2.94936e-06
3.19806e-06
3.59566e-06
4.16707e-06
4.93941e-06
5.94073e-06
7.197e-06
8.72787e-06
1.04974e-05
0.00658151
0.00202554
0.00085051
0.000500207
0.000407552
0.000409494
0.000445767
0.000490622
0.000533415
0.000570561
0.000601523
0.000627098
0.00064839
0.000666404
0.000681956
0.000695677
0.000708035
0.000719375
0.000729942
0.000739905
0.00074938
0.000758442
0.000767133
0.000775481
0.000783499
0.000791189
0.000798551
0.000805593
0.000812348
0.000818888
0.000825321
0.000831736
0.000838156
0.00084441
0.000850441
0.00655225
0.0020021
0.00077939
0.000363331
0.000193803
0.000114435
7.30589e-05
4.95874e-05
3.53502e-05
2.62453e-05
2.01843e-05
1.60421e-05
1.31911e-05
1.12786e-05
1.01152e-05
9.61329e-06
9.74988e-06
1.05401e-05
1.20156e-05
1.4206e-05
1.71242e-05
2.0755e-05
2.50491e-05
2.99238e-05
3.52703e-05
4.09638e-05
4.68762e-05
5.28891e-05
5.89029e-05
6.48419e-05
7.06545e-05
7.63098e-05
8.17836e-05
8.70445e-05
9.19563e-05
0.0073399
0.00282848
0.00187917
0.00167836
0.00164789
0.0016546
0.00166829
0.00168217
0.00169471
0.00170506
0.00171241
0.00171587
0.00171449
0.0017077
0.00169542
0.00167801
0.00165615
0.0016307
0.00160254
0.00157255
0.00154148
0.00150997
0.00147853
0.00144759
0.00141746
0.00138835
0.00136037
0.00133344
0.00130739
0.00128194
0.00125697
0.00123283
0.00121076
0.00119238
0.0011811
0.00710116
0.0026426
0.00170933
0.0015217
0.0015033
0.00151855
0.00153703
0.00155263
0.00156496
0.00157449
0.00158081
0.00158327
0.00158119
0.00157412
0.001562
0.00154517
0.00152424
0.00150003
0.0014734
0.00144514
0.00141599
0.00138655
0.00135728
0.00132855
0.00130057
0.00127348
0.00124729
0.00122198
0.00119762
0.00117453
0.00115336
0.00113484
0.00111939
0.00110542
0.0010918
0.00761854
0.00312543
0.00219887
0.00199213
0.00194349
0.0019321
0.00193085
0.00193304
0.00193768
0.00194376
0.00194949
0.00195309
0.00195315
0.0019486
0.00193898
0.00192433
0.00190505
0.00188179
0.00185534
0.0018265
0.00179606
0.0017647
0.001733
0.00170143
0.00167037
0.00164012
0.00161086
0.00158263
0.00155531
0.00152869
0.00150261
0.00147723
0.0014536
0.00143288
0.00141999
0.00746977
0.00296335
0.00202294
0.00181649
0.00177534
0.00177153
0.00177537
0.0017807
0.00178728
0.00179434
0.00180052
0.00180439
0.00180473
0.00180072
0.00179193
0.00177839
0.00176048
0.00173883
0.00171421
0.00168741
0.00165917
0.00163013
0.00160086
0.00157179
0.00154322
0.00151538
0.00148835
0.00146214
0.00143679
0.00141248
0.00138968
0.00136909
0.00135156
0.00133647
0.00132518
0.0254406
0.0121467
0.0078125
0.00640696
0.00584366
0.00557585
0.0054412
0.00537664
0.00535343
0.00535521
0.00537335
0.00540284
0.00544058
0.0054845
0.00553311
0.0055852
0.00563964
0.00569538
0.00575142
0.0058069
0.00586107
0.00591332
0.0059632
0.00601043
0.00605481
0.00609627
0.0061348
0.00617047
0.00620345
0.0062342
0.00626334
0.00629199
0.00632058
0.00634938
0.0063778
0.00657059
0.0020224
0.000829577
0.000458558
0.000346894
0.00033529
0.000365014
0.000409105
0.000454409
0.000495257
0.000529971
0.000558676
0.000582173
0.000601341
0.000616919
0.000629485
0.000639473
0.000647251
0.000653123
0.000657365
0.000660227
0.000661942
0.00066273
0.000662794
0.000662314
0.000661446
0.000660314
0.000659017
0.000657633
0.000656239
0.000654933
0.000653829
0.000653104
0.000652757
0.000653503
0.0065985
0.00204761
0.000896261
0.000571081
0.000500079
0.000516949
0.000560987
0.000608271
0.000650358
0.000685401
0.000714002
0.000737441
0.000756931
0.000773468
0.000787807
0.000800468
0.0008118
0.000822033
0.000831317
0.000839759
0.000847435
0.000854401
0.000860709
0.000866414
0.000871569
0.000876232
0.000880455
0.000884288
0.000887786
0.000891026
0.000894128
0.000897229
0.000900532
0.000903977
0.000908581
0.00671294
0.00218208
0.00112234
0.000877049
0.000855785
0.000892338
0.000936366
0.000974508
0.00100515
0.00102948
0.00104933
0.00106608
0.00108072
0.00109403
0.00110658
0.00111872
0.00113071
0.00114268
0.00115471
0.00116681
0.00117896
0.00119113
0.00120325
0.00121527
0.00122714
0.00123878
0.00125012
0.00126112
0.0012718
0.00128226
0.00129266
0.00130315
0.00131373
0.001324
0.00133388
0.00717905
0.00264886
0.00166875
0.00145092
0.00141674
0.00142528
0.00144199
0.001459
0.00147484
0.0014896
0.00150358
0.00151698
0.00152993
0.00154244
0.00155437
0.00156552
0.00157567
0.0015846
0.00159216
0.00159829
0.00160297
0.00160626
0.00160829
0.0016092
0.00160916
0.00160831
0.00160681
0.00160477
0.00160229
0.00159948
0.00159661
0.00159402
0.00159251
0.00159181
0.00159688
0.0308855
0.0133926
0.00858117
0.00715707
0.00659503
0.0063295
0.00619825
0.00614037
0.00612528
0.00613655
0.00616493
0.00620482
0.00625281
0.00630668
0.00636475
0.00642559
0.00648794
0.00655062
0.00661255
0.00667281
0.00673064
0.0067855
0.00683709
0.00688528
0.00693006
0.00697146
0.00700948
0.00704417
0.00707582
0.00710522
0.00713341
0.0071617
0.00718973
0.00721672
0.00723952
0.00657081
0.00201065
0.000822158
0.000454413
0.000343879
0.000331382
0.000358743
0.000399883
0.000442517
0.000481422
0.000514996
0.000543315
0.000567092
0.000587186
0.000604394
0.000619392
0.00063273
0.000644844
0.000656071
0.000666671
0.000676839
0.000686723
0.000696434
0.000706046
0.000715598
0.000725097
0.000734536
0.000743927
0.000753339
0.00076289
0.000772669
0.000782595
0.000792307
0.000801281
0.000808475
0.0127425
0.00616023
0.00424832
0.00360178
0.00334104
0.00322048
0.00316215
0.00313658
0.00313068
0.00313705
0.00315154
0.00317172
0.00319609
0.00322371
0.00325394
0.0032863
0.00332032
0.00335557
0.0033916
0.00342799
0.00346433
0.00350028
0.00353554
0.00356987
0.00360308
0.003635
0.00366551
0.00369449
0.00372199
0.00374823
0.00377371
0.00379904
0.00382491
0.00384999
0.00388019
0.00658279
0.00204985
0.000882285
0.000542445
0.000464205
0.000480395
0.000527818
0.000579766
0.000625483
0.000661461
0.000686911
0.000702184
0.000708752
0.000708093
0.000701691
0.000690979
0.000677254
0.000661614
0.000644934
0.000627872
0.000610893
0.000594311
0.000578327
0.000563069
0.000548603
0.000534942
0.000522053
0.000509844
0.000498181
0.00048693
0.000476067
0.000465766
0.000456576
0.000449029
0.000444636
0.006583
0.00205021
0.000882673
0.000543005
0.000465024
0.000481353
0.0005287
0.000580424
0.000625867
0.000661581
0.000686832
0.000701957
0.00070842
0.000707682
0.000701219
0.000690459
0.000676693
0.000661019
0.00064431
0.000627227
0.000610239
0.000593661
0.000577692
0.000562447
0.000547962
0.000534224
0.000521188
0.000508821
0.000497155
0.000486328
0.00047658
0.00046806
0.000460615
0.000453104
0.000444817
0.00810516
0.00345653
0.00247239
0.00222473
0.00214906
0.00212316
0.00211635
0.00211823
0.00212391
0.00212987
0.00213415
0.00213504
0.00213073
0.00212002
0.00210248
0.00207835
0.00204844
0.0020138
0.00197559
0.00193502
0.00189313
0.00185076
0.00180859
0.00176716
0.00172682
0.00168768
0.0016497
0.00161285
0.00157739
0.0015441
0.00151437
0.00148957
0.00146961
0.00145099
0.00142592
0.00852362
0.00373704
0.00268402
0.00239373
0.00229357
0.00225545
0.00224357
0.00224429
0.0022509
0.00225861
0.00226506
0.00226789
0.002265
0.00225504
0.00223757
0.00221288
0.00218183
0.00214557
0.00210541
0.00206257
0.0020182
0.00197318
0.00192825
0.00188406
0.00184111
0.00179972
0.00176
0.00172175
0.00168449
0.00164766
0.00161106
0.00157555
0.00154358
0.00151934
0.00150522
0.00655256
0.00200457
0.000781362
0.000364656
0.00019485
0.000115672
7.49423e-05
5.26622e-05
4.03535e-05
3.41899e-05
3.2402e-05
3.41574e-05
3.90001e-05
4.65445e-05
5.63248e-05
6.77665e-05
8.02443e-05
9.31723e-05
0.000106074
0.000118611
0.000130573
0.000141855
0.000152426
0.000162302
0.000171526
0.000180153
0.000188243
0.000195854
0.000203051
0.000209896
0.000216447
0.000222743
0.000228776
0.000234483
0.000239665
0.0202313
0.00999894
0.00666217
0.00556534
0.0051198
0.00490862
0.00480706
0.00476303
0.00474978
0.00475226
0.0047603
0.00476677
0.0047661
0.00475452
0.00473015
0.00469272
0.00464319
0.00458332
0.00451523
0.00444112
0.00436306
0.00428286
0.00420199
0.00412171
0.00404298
0.00396649
0.00389256
0.00382111
0.00375167
0.00368366
0.00361689
0.00355299
0.00349394
0.00344999
0.00340672
0.00657205
0.00202455
0.000834269
0.000465515
0.000355674
0.000345167
0.000375324
0.000419451
0.0004646
0.000505184
0.000539518
0.000567721
0.000590589
0.000608955
0.00062351
0.000634803
0.000643263
0.000649342
0.000653399
0.000655761
0.000656734
0.000656598
0.000655611
0.000653999
0.000651956
0.000649639
0.00064717
0.00064464
0.00064212
0.00063968
0.000637413
0.000635427
0.000633897
0.000632797
0.000632922
0.0605309
0.0295898
0.0185226
0.0151204
0.0137636
0.0131001
0.0127531
0.0125715
0.0124842
0.0124523
0.0124528
0.0124703
0.0124931
0.0125117
0.0125191
0.0125106
0.0124837
0.0124375
0.012373
0.0122921
0.0121975
0.0120921
0.0119787
0.01186
0.0117385
0.011616
0.0114941
0.011374
0.0112563
0.0111415
0.0110296
0.0109226
0.010818
0.0107361
0.0106156
0.0862734
0.0385189
0.0234587
0.0188987
0.0170911
0.0162258
0.0157757
0.0155496
0.0154531
0.0154347
0.0154668
0.0155342
0.0156278
0.0157414
0.0158711
0.0160139
0.0161674
0.0163299
0.0164996
0.0166753
0.0168559
0.0170406
0.0172287
0.0174194
0.017612
0.0178051
0.0179976
0.0181895
0.0183823
0.0185785
0.0187797
0.0189834
0.019181
0.0193499
0.0195375
0.00838928
0.00374247
0.00269366
0.00239181
0.0022818
0.00223472
0.002214
0.00220738
0.00220858
0.00221425
0.00222211
0.00223025
0.0022371
0.00224135
0.00224207
0.00223872
0.00223115
0.00221953
0.00220426
0.00218592
0.00216513
0.00214253
0.0021187
0.00209416
0.00206935
0.00204461
0.00202017
0.00199618
0.00197272
0.0019499
0.00192798
0.00190748
0.00188939
0.00187385
0.00186463
0.00657727
0.00201932
0.000839068
0.000481644
0.000381679
0.000377862
0.000410821
0.000454678
0.000497975
0.000536264
0.000568523
0.00059514
0.000617225
0.000635811
0.000651771
0.000665772
0.00067833
0.000689836
0.00070058
0.000710767
0.000720541
0.000729998
0.000739197
0.00074817
0.000756928
0.000765465
0.000773768
0.000781839
0.000789708
0.000797449
0.00080516
0.000812886
0.000820547
0.000827865
0.000834425
0.00754031
0.00306057
0.00214803
0.00194091
0.00189066
0.00188012
0.00188199
0.00188848
0.0018964
0.00190305
0.00190734
0.001908
0.00190363
0.00189329
0.00187673
0.00185427
0.0018267
0.00179499
0.00176023
0.00172346
0.00168562
0.00164745
0.00160952
0.00157232
0.00153611
0.00150101
0.00146697
0.001434
0.00140235
0.00137276
0.00134644
0.00132441
0.00130636
0.00128858
0.00126467
0.0076541
0.00314639
0.00221972
0.0020002
0.00194172
0.00192678
0.00192672
0.0019327
0.00194091
0.00194815
0.00195318
0.00195453
0.00195066
0.0019406
0.00192408
0.00190144
0.00187347
0.00184119
0.00180573
0.00176816
0.00172941
0.00169025
0.00165127
0.00161302
0.0015759
0.00154016
0.00150587
0.00147283
0.00144064
0.00140885
0.00137736
0.00134703
0.0013201
0.00129971
0.00128872
0.00655227
0.00200319
0.000780043
0.000363722
0.000194052
0.000114601
7.31726e-05
4.96646e-05
3.53967e-05
2.62598e-05
2.01576e-05
1.5956e-05
1.30141e-05
1.09617e-05
9.5871e-06
8.77732e-06
8.48441e-06
8.7034e-06
9.4554e-06
1.07724e-05
1.26835e-05
1.52033e-05
1.83237e-05
2.20092e-05
2.61978e-05
3.08051e-05
3.57327e-05
4.08775e-05
4.61419e-05
5.14416e-05
5.67102e-05
6.19012e-05
6.69808e-05
7.19151e-05
7.66155e-05
0.00882397
0.00408259
0.00297992
0.00264609
0.00251971
0.00246339
0.00243652
0.00242528
0.00242277
0.00242551
0.00243111
0.00243764
0.00244334
0.00244671
0.00244673
0.00244272
0.00243444
0.00242194
0.0024056
0.00238592
0.00236354
0.0023391
0.00231322
0.00228647
0.00225933
0.00223221
0.00220545
0.00217926
0.00215376
0.00212893
0.00210474
0.00208118
0.00205877
0.00203796
0.00202271
0.00708174
0.00255733
0.00157496
0.0013671
0.00134383
0.00136024
0.00138149
0.00140054
0.00141692
0.00143147
0.00144498
0.00145801
0.0014709
0.00148383
0.00149684
0.00150987
0.00152279
0.00153541
0.00154754
0.00155903
0.00156975
0.0015796
0.00158856
0.00159662
0.00160382
0.00161021
0.00161584
0.00162078
0.00162509
0.00162887
0.00163233
0.00163572
0.0016396
0.00164387
0.00165136
0.0125381
0.00584195
0.0039795
0.00336288
0.0031268
0.00302904
0.00299051
0.00298147
0.00298895
0.00300628
0.00302975
0.0030574
0.00308791
0.00312067
0.00315539
0.00319183
0.00322986
0.00326925
0.00330983
0.00335138
0.0033937
0.00343657
0.0034798
0.00352317
0.00356645
0.00360933
0.00365152
0.00369283
0.00373342
0.00377381
0.00381473
0.00385652
0.00389858
0.0039374
0.00397542
0.0726083
0.0350929
0.0218503
0.0177851
0.0161429
0.0153283
0.0149009
0.0146791
0.0145724
0.0145321
0.0145282
0.0145405
0.0145535
0.0145555
0.0145386
0.014498
0.0144321
0.0143414
0.0142284
0.0140965
0.0139497
0.0137919
0.0136268
0.0134577
0.0132875
0.0131182
0.0129516
0.0127886
0.0126298
0.0124753
0.0123249
0.0121818
0.0120432
0.0119371
0.0117854
0.0646634
0.0309437
0.0190277
0.0154522
0.0140312
0.0133356
0.0129779
0.0127983
0.012718
0.0126948
0.0127032
0.0127247
0.0127458
0.0127559
0.0127477
0.0127171
0.0126627
0.0125852
0.012487
0.0123716
0.0122427
0.0121041
0.0119592
0.0118109
0.0116617
0.0115133
0.011367
0.0112237
0.0110843
0.0109502
0.0108227
0.0107057
0.0105955
0.0105112
0.0103743
0.00712519
0.00265187
0.00172308
0.00152948
0.00150189
0.00150956
0.00152293
0.00153647
0.00154961
0.00156264
0.00157569
0.00158885
0.00160234
0.00161631
0.00163078
0.00164573
0.00166105
0.00167659
0.0016922
0.00170769
0.0017229
0.00173771
0.00175201
0.00176575
0.0017789
0.00179142
0.00180324
0.00181432
0.00182468
0.0018345
0.00184412
0.00185386
0.00186398
0.00187341
0.00188582
0.00655872
0.0020046
0.000791579
0.000393157
0.00024839
0.000202153
0.00020194
0.00022498
0.000258679
0.000295343
0.000330584
0.00036234
0.000390012
0.000413779
0.000434141
0.00045168
0.00046696
0.000480469
0.000492615
0.000503709
0.000513995
0.000523664
0.000532858
0.000541684
0.000550212
0.000558487
0.000566537
0.000574396
0.00058212
0.000589785
0.000597456
0.000605112
0.00061259
0.000619607
0.000625602
0.00657076
0.00201095
0.000822589
0.000455565
0.000346327
0.000335393
0.000364179
0.000406395
0.000449712
0.000488871
0.000522401
0.000550478
0.000573914
0.000593644
0.000610506
0.000625199
0.000638286
0.000650199
0.000661268
0.000671731
0.000681762
0.000691484
0.000700977
0.000710294
0.000719455
0.000728459
0.000737299
0.000745983
0.000754552
0.000763086
0.000771664
0.000780275
0.000788734
0.000796686
0.00080344
0.00675946
0.00222346
0.00118621
0.000957754
0.000943319
0.00097989
0.00102122
0.00105644
0.00108483
0.00110788
0.00112714
0.00114378
0.0011587
0.00117257
0.00118586
0.00119895
0.00121204
0.00122529
0.00123879
0.00125258
0.00126667
0.00128102
0.00129562
0.00131039
0.00132528
0.00134016
0.00135495
0.00136959
0.00138412
0.00139873
0.00141363
0.00142885
0.001444
0.0014582
0.00146966
0.00656023
0.002015
0.000801194
0.000403575
0.000261509
0.000219282
0.000223387
0.00025011
0.000286366
0.00032449
0.000360367
0.000392193
0.000419541
0.000442658
0.000462031
0.000478161
0.0004915
0.000502439
0.000511313
0.000518418
0.000524011
0.000528322
0.000531568
0.000533945
0.000535636
0.000536801
0.000537574
0.000538065
0.000538366
0.000538559
0.000538737
0.000538995
0.000539455
0.000540148
0.000541422
0.00668448
0.00218056
0.00111907
0.000875241
0.000861577
0.00090772
0.000960222
0.0010044
0.00103799
0.00106182
0.00107655
0.00108355
0.00108377
0.00107794
0.0010669
0.00105161
0.00103306
0.00101223
0.000989958
0.000966957
0.000943767
0.000920797
0.000898351
0.000876648
0.000855837
0.000835997
0.000817102
0.000799059
0.000781675
0.000764726
0.000748145
0.00073221
0.000717891
0.000706227
0.000699882
0.00669059
0.00218902
0.00113531
0.000894648
0.000879732
0.000922493
0.000971645
0.00101328
0.00104511
0.0010678
0.00108213
0.00108891
0.00108901
0.00108311
0.001072
0.00105663
0.00103798
0.00101701
0.000994593
0.000971437
0.000948101
0.000924991
0.000902428
0.000880609
0.00085964
0.000839537
0.000820257
0.000801779
0.000784197
0.000767804
0.000753079
0.000740369
0.000729504
0.00071853
0.00070598
0.00655244
0.00200488
0.000781232
0.000364465
0.000194497
0.000114921
7.34983e-05
5.01152e-05
3.61181e-05
2.74582e-05
2.21386e-05
1.91652e-05
1.80736e-05
1.86853e-05
2.09577e-05
2.48745e-05
3.03685e-05
3.72805e-05
4.53577e-05
5.42825e-05
6.37185e-05
7.33539e-05
8.29325e-05
9.2266e-05
0.000101237
0.000109779
0.000117859
0.00012548
0.00013266
0.000139434
0.000145839
0.000151912
0.000157672
0.000163105
0.000168108
0.00655438
0.00200457
0.000782952
0.000370993
0.00020861
0.000140252
0.000114699
0.00011238
0.000124171
0.000144516
0.000169349
0.00019565
0.000221399
0.000245451
0.000267316
0.000286893
0.000304313
0.000319815
0.000333634
0.000346066
0.000357351
0.000367693
0.000377262
0.000386197
0.000394611
0.000402586
0.000410188
0.000417475
0.000424511
0.000431373
0.000438122
0.000444763
0.000451202
0.000457263
0.000462516
0.00659908
0.00206763
0.000916768
0.000596141
0.000534527
0.000561636
0.0006135
0.000665332
0.000709266
0.000744239
0.000771289
0.000791809
0.000806937
0.000817513
0.000824174
0.000827416
0.000827701
0.000825489
0.00082125
0.000815439
0.000808482
0.000800754
0.00079257
0.000784186
0.000775802
0.000767567
0.000759586
0.000751925
0.000744613
0.000737647
0.000731018
0.000724707
0.000718841
0.000713379
0.000709939
0.00677538
0.00227138
0.00123463
0.0010072
0.000998995
0.0010426
0.00108901
0.0011264
0.00115423
0.00117479
0.00118976
0.00120018
0.00120638
0.0012088
0.00120768
0.00120324
0.00119584
0.0011859
0.00117394
0.00116046
0.00114593
0.00113076
0.00111531
0.00109985
0.0010846
0.00106971
0.00105525
0.00104127
0.00102776
0.00101478
0.00100247
0.000991085
0.000981139
0.000972453
0.000967416
0.00920767
0.00411627
0.0028821
0.00249965
0.00235379
0.00229293
0.00227013
0.00226702
0.00227466
0.0022882
0.00230506
0.00232373
0.00234325
0.00236291
0.00238204
0.00240002
0.00241628
0.00243039
0.00244207
0.00245116
0.00245767
0.00246174
0.00246358
0.00246346
0.00246169
0.00245856
0.00245432
0.00244918
0.0024433
0.0024369
0.00243041
0.00242446
0.00242027
0.00241782
0.00242231
0.00663567
0.00209501
0.000986535
0.000701537
0.000659631
0.000691719
0.000740041
0.000785469
0.000823259
0.000853462
0.000877649
0.000897441
0.000914146
0.000928723
0.000941801
0.000953818
0.000965056
0.000975674
0.000985756
0.000995344
0.00100445
0.0010131
0.0010213
0.00102907
0.00103643
0.00104339
0.00104994
0.00105607
0.00106182
0.00106731
0.00107272
0.0010782
0.0010838
0.00108915
0.00109477
0.00655287
0.0020083
0.000783239
0.000366033
0.000196443
0.00011804
7.86887e-05
5.85359e-05
4.92712e-05
4.71768e-05
5.04478e-05
5.80253e-05
6.90586e-05
8.26842e-05
9.79936e-05
0.000114105
0.000130265
0.000145912
0.000160692
0.000174427
0.000187061
0.000198622
0.00020918
0.000218823
0.000227644
0.000235729
0.000243159
0.000250016
0.000256362
0.000262268
0.000267801
0.000273025
0.000277968
0.00028261
0.000286816
0.0065543
0.00201122
0.000786797
0.000371944
0.000206841
0.000135515
0.000106416
0.000100025
0.000107659
0.000124363
0.000146521
0.000171239
0.000196327
0.000220317
0.000242375
0.000262157
0.000279599
0.00029479
0.000307895
0.000319084
0.00032857
0.000336578
0.000343317
0.000348976
0.000353727
0.000357729
0.000361122
0.000364032
0.000366566
0.000368826
0.000370906
0.000372896
0.000374866
0.000376851
0.000378896
0.00685449
0.0023632
0.00135399
0.00114328
0.00113944
0.00117979
0.0012204
0.00125243
0.00127646
0.00129446
0.00130786
0.0013175
0.00132358
0.00132612
0.00132519
0.00132095
0.00131367
0.00130372
0.00129158
0.00127771
0.0012626
0.00124668
0.00123032
0.00121383
0.00119746
0.0011814
0.0011658
0.00115074
0.00113623
0.00112224
0.00110872
0.00109564
0.00108334
0.00107177
0.00106462
0.00693767
0.00241419
0.00142421
0.00122013
0.00120714
0.00123416
0.00126373
0.00128872
0.00130941
0.00132703
0.00134276
0.00135735
0.00137125
0.0013848
0.0013984
0.00141228
0.00142655
0.00144127
0.00145642
0.00147197
0.00148785
0.00150398
0.00152027
0.00153662
0.00155294
0.00156911
0.001585
0.00160054
0.00161576
0.00163081
0.00164597
0.00166138
0.00167693
0.00169183
0.00170539
0.00716357
0.00268679
0.00173634
0.00153885
0.00151448
0.00152611
0.00154206
0.00155539
0.00156691
0.00157724
0.0015865
0.00159441
0.00160048
0.0016042
0.00160516
0.00160315
0.00159814
0.00159032
0.00158
0.00156761
0.00155358
0.00153835
0.00152232
0.00150584
0.00148921
0.00147266
0.00145634
0.00144033
0.00142469
0.00140949
0.00139493
0.00138134
0.00136945
0.00135929
0.00135389
0.0082721
0.00345137
0.00236772
0.00207707
0.00198529
0.00195481
0.00194778
0.00195157
0.00196118
0.0019743
0.00198976
0.00200694
0.0020255
0.00204526
0.00206614
0.0020881
0.00211111
0.0021351
0.00216001
0.00218576
0.00221226
0.00223946
0.0022673
0.0022957
0.00232453
0.00235357
0.00238257
0.00241147
0.00244051
0.0024703
0.00250143
0.00253374
0.00256567
0.00259404
0.002617
0.00655339
0.00201898
0.000790339
0.000370047
0.000198032
0.000117372
7.54506e-05
5.19696e-05
3.82135e-05
3.01403e-05
2.57931e-05
2.42184e-05
2.49541e-05
2.77483e-05
3.23901e-05
3.86156e-05
4.60779e-05
5.43662e-05
6.30519e-05
7.17496e-05
8.01462e-05
8.80241e-05
9.52595e-05
0.000101806
0.000107676
0.000112915
0.000117592
0.000121781
0.000125557
0.000128991
0.00013215
0.000135095
0.00013789
0.000140556
0.000143217
0.00657565
0.00201432
0.000835232
0.000479625
0.000382365
0.000381579
0.000416963
0.000462184
0.00050598
0.000544402
0.000576784
0.000603763
0.000626318
0.000645413
0.000661865
0.000676313
0.000689291
0.000701208
0.000712374
0.000723024
0.000733335
0.000743439
0.000753435
0.000763384
0.000773314
0.000783217
0.00079307
0.000802878
0.000812709
0.00082269
0.000832919
0.000843313
0.000853482
0.000862856
0.000870326
0.0674525
0.03082
0.0188344
0.0153181
0.0139168
0.0132323
0.0128831
0.0127133
0.0126459
0.0126376
0.0126644
0.0127109
0.0127661
0.0128211
0.0128689
0.012904
0.0129231
0.0129244
0.0129076
0.0128739
0.012825
0.0127634
0.0126915
0.0126118
0.0125267
0.0124379
0.0123471
0.0122555
0.0121642
0.0120747
0.0119883
0.011909
0.0118345
0.011782
0.0116812
0.00655768
0.00200434
0.000789252
0.00038754
0.000238671
0.000187539
0.00018205
0.000200158
0.000229867
0.000263721
0.000297252
0.000328149
0.000355551
0.000379401
0.000400015
0.00041788
0.000433489
0.00044729
0.000459659
0.000470903
0.000481263
0.000490928
0.000500042
0.000508709
0.000517004
0.000524976
0.00053266
0.000540079
0.000547292
0.00055437
0.000561376
0.000568315
0.000575076
0.000581458
0.000586932
0.00655233
0.00200376
0.000780689
0.000364191
0.000194367
0.000114816
7.33226e-05
4.97674e-05
3.54591e-05
2.62799e-05
2.01248e-05
1.58489e-05
1.27973e-05
1.05808e-05
8.96286e-06
7.79921e-06
7.00526e-06
6.53701e-06
6.37963e-06
6.53959e-06
7.03849e-06
7.90729e-06
9.18082e-06
1.08922e-05
1.30676e-05
1.57214e-05
1.88515e-05
2.24368e-05
2.64363e-05
3.07925e-05
3.54359e-05
4.02924e-05
4.52865e-05
5.03403e-05
5.53417e-05
0.00684481
0.0023169
0.00131024
0.00109859
0.00108697
0.00111955
0.00115529
0.00118542
0.00120971
0.00122969
0.0012468
0.00126211
0.00127638
0.00129015
0.00130376
0.00131748
0.00133145
0.00134579
0.00136054
0.00137572
0.00139134
0.0014074
0.00142389
0.00144077
0.00145797
0.00147537
0.00149283
0.0015103
0.00152793
0.00154602
0.00156488
0.00158439
0.00160364
0.001621
0.00163425
0.00656272
0.00200878
0.000801965
0.000412358
0.0002786
0.000244387
0.000254911
0.000285523
0.000323085
0.000360667
0.000394979
0.00042499
0.000450693
0.000472605
0.00049136
0.000507573
0.000521775
0.000534397
0.000545779
0.000556181
0.000565802
0.000574784
0.000583232
0.000591218
0.000598793
0.000605992
0.000612841
0.000619367
0.000625613
0.000631648
0.000637556
0.000643394
0.000649146
0.000654673
0.000659761
0.0241488
0.0121336
0.00789778
0.00648195
0.0059085
0.00563523
0.00550144
0.00544023
0.00541926
0.00542109
0.00543543
0.0054552
0.00547513
0.00549103
0.00549986
0.00549964
0.00548946
0.00546934
0.00543999
0.00540264
0.00535873
0.00530976
0.00525721
0.00520236
0.00514632
0.00508996
0.00503392
0.00497864
0.00492446
0.00487187
0.00482151
0.00477496
0.00473218
0.00469885
0.0046557
0.073888
0.0346882
0.0212152
0.0169869
0.0153036
0.0144969
0.0140748
0.0138593
0.0137639
0.0137416
0.0137664
0.0138236
0.0139042
0.0140028
0.0141157
0.0142404
0.0143749
0.0145176
0.014667
0.0148221
0.0149819
0.0151454
0.0153121
0.015481
0.0156512
0.0158217
0.0159917
0.0161614
0.0163319
0.0165053
0.0166819
0.0168589
0.0170287
0.0171737
0.0173315
0.00655883
0.00200635
0.000791275
0.000389775
0.000241583
0.000191588
0.0001874
0.000206634
0.000237127
0.00027143
0.000305251
0.000336368
0.000363945
0.000387938
0.000408673
0.000426611
0.000442225
0.000455949
0.000468158
0.000479168
0.000489235
0.000498562
0.000507307
0.00051559
0.000523493
0.000531064
0.00053833
0.000545318
0.000552077
0.00055869
0.000565241
0.000571745
0.000578082
0.000584004
0.000589154
0.00655553
0.0020301
0.000797039
0.000375521
0.00020458
0.000127229
9.11919e-05
7.67101e-05
7.53721e-05
8.27543e-05
9.56341e-05
0.000111187
0.000127036
0.000141487
0.000153599
0.000163057
0.000169964
0.000174637
0.000177477
0.000178877
0.000179192
0.000178719
0.000177697
0.000176312
0.000174709
0.000172992
0.000171235
0.000169489
0.00016779
0.000166167
0.000164653
0.000163284
0.000162113
0.000161134
0.000160468
0.00655275
0.00201092
0.000785116
0.000366864
0.000196045
0.000116031
7.44321e-05
5.10635e-05
3.72555e-05
2.89757e-05
2.42623e-05
2.21606e-05
2.22319e-05
2.4287e-05
2.82172e-05
3.38809e-05
4.10402e-05
4.93508e-05
5.83808e-05
6.77128e-05
7.70049e-05
8.59645e-05
9.44072e-05
0.000102243
0.00010945
0.000116052
0.000122097
0.000127644
0.000132755
0.000137494
0.000141919
0.000146089
0.000150052
0.00015383
0.000157435
0.00725729
0.00266454
0.00167403
0.00146171
0.00143221
0.00144322
0.00146109
0.00147874
0.00149537
0.00151131
0.00152687
0.00154223
0.00155761
0.0015732
0.00158916
0.00160565
0.00162274
0.00164045
0.00165876
0.00167763
0.00169701
0.00171682
0.001737
0.00175745
0.00177805
0.00179865
0.00181908
0.00183929
0.00185934
0.00187952
0.00190014
0.00192125
0.00194229
0.00196183
0.00197832
0.00716767
0.00266701
0.00171591
0.00151714
0.0014889
0.00149618
0.00150854
0.00152004
0.00153106
0.00154196
0.00155323
0.0015651
0.00157763
0.00159087
0.00160483
0.0016195
0.00163482
0.00165067
0.0016669
0.00168336
0.00169989
0.00171633
0.00173256
0.00174844
0.0017639
0.00177884
0.00179319
0.0018069
0.00181996
0.00183249
0.00184472
0.00185693
0.00186951
0.00188189
0.00189746
0.00655298
0.00200825
0.000783635
0.000366386
0.000196804
0.000118553
7.9556e-05
6.00635e-05
5.19091e-05
5.15136e-05
5.70971e-05
6.74346e-05
8.13364e-05
9.7543e-05
0.00011485
0.000132262
0.000149084
0.000164895
0.000179497
0.000192843
0.000204976
0.000215983
0.00022597
0.000235044
0.000243307
0.000250851
0.000257755
0.000264091
0.000269932
0.000275355
0.000280439
0.000285247
0.000289799
0.000294065
0.000297883
0.00821763
0.00347844
0.0024375
0.0021582