/*--------------------------------*- C++ -*----------------------------------*\
| =========                 |                                                 |
| \\      /  F ield         | OpenFOAM: The Open Source CFD Toolbox           |
|  \\    /   O peration     | Version:  2.4.x                                 |
|   \\  /    A nd           | Web:      www.OpenFOAM.org                      |
|    \\/     M anipulation  |                                                 |
\*---------------------------------------------------------------------------*/
FoamFile
{
    version     2.0;
    format      ascii;
    class       volScalarField;
    location    "9990/coolant";
    object      k;
}
// * * * * * * * * * * * * * * * * * * * * * * * * * * * * * * * * * * * * * //

dimensions      [0 2 -2 0 0 0 0];

internalField   nonuniform List<scalar> 
109760
(
0.000349476
0.000160207
8.82842e-05
5.54283e-05
3.83181e-05
2.863e-05
2.29878e-05
1.99223e-05
1.87923e-05
1.93275e-05
2.13937e-05
2.4859e-05
2.95288e-05
3.51394e-05
4.13911e-05
4.79958e-05
5.47126e-05
6.13613e-05
6.78199e-05
7.40133e-05
7.99024e-05
8.54738e-05
9.07319e-05
9.56925e-05
0.000100377
0.000104806
0.000109001
0.000112979
0.000116759
0.000120365
0.000123829
0.000127185
0.000130444
0.000133577
0.000136477
0.000350352
0.000161269
9.26173e-05
6.6123e-05
5.85937e-05
6.11358e-05
6.9049e-05
7.94103e-05
9.0436e-05
0.000101134
0.00011103
0.000119968
0.000127962
0.000135093
0.000141467
0.00014719
0.000152361
0.000157068
0.000161383
0.000165371
0.000169083
0.000172562
0.000175847
0.000178968
0.000181949
0.000184803
0.000187534
0.000190139
0.000192627
0.00019503
0.000197408
0.000199816
0.000202252
0.000204595
0.000206687
0.000405319
0.000235778
0.000189728
0.000175078
0.000170367
0.000169525
0.000170372
0.000171956
0.000173808
0.000175698
0.000177488
0.000179067
0.00018035
0.000181271
0.000181794
0.000181907
0.000181626
0.000180986
0.000180037
0.000178837
0.000177441
0.000175905
0.000174275
0.000172593
0.000170892
0.000169198
0.000167528
0.000165888
0.000164278
0.000162702
0.000161175
0.00015974
0.00015851
0.000157492
0.000157139
0.000354612
0.000175254
0.000129069
0.000122935
0.00012865
0.000137125
0.000145527
0.000153059
0.000159619
0.000165317
0.000170309
0.000174735
0.000178711
0.000182336
0.000185684
0.000188817
0.000191779
0.000194607
0.000197331
0.000199973
0.000202549
0.000205075
0.000207564
0.000210028
0.000212473
0.00021489
0.000217261
0.000219563
0.000221801
0.00022403
0.00022635
0.000228836
0.000231449
0.000233924
0.000235966
0.000392034
0.00021823
0.000172921
0.000159345
0.000155329
0.000154844
0.000155817
0.000157416
0.000159291
0.000161269
0.000163272
0.000165263
0.000167229
0.000169163
0.000171066
0.000172933
0.000174756
0.000176526
0.00017823
0.000179857
0.000181396
0.000182842
0.00018419
0.000185439
0.000186594
0.000187657
0.000188634
0.000189528
0.000190341
0.00019108
0.000191765
0.000192427
0.000193152
0.000193888
0.000195167
0.000350011
0.000160683
9.13643e-05
6.37928e-05
5.48688e-05
5.60256e-05
6.28727e-05
7.25916e-05
8.33347e-05
9.39897e-05
0.000103982
0.000113084
0.00012126
0.00012857
0.000135112
0.000140992
0.00014631
0.000151156
0.000155609
0.000159735
0.000163588
0.000167213
0.000170649
0.000173929
0.000177077
0.000180108
0.000183027
0.000185836
0.00018855
0.000191207
0.00019387
0.000196581
0.000199316
0.00020193
0.000204156
0.000349434
0.00015975
8.78443e-05
5.49888e-05
3.77625e-05
2.7735e-05
2.14136e-05
1.71737e-05
1.41866e-05
1.19971e-05
1.03393e-05
9.05008e-06
8.02473e-06
7.19384e-06
6.51003e-06
5.94029e-06
5.46143e-06
5.05725e-06
4.71693e-06
4.434e-06
4.20584e-06
4.03352e-06
3.92174e-06
3.87899e-06
3.91771e-06
4.05448e-06
4.30995e-06
4.70864e-06
5.27829e-06
6.04884e-06
7.05089e-06
8.31376e-06
9.86201e-06
1.17112e-05
1.38223e-05
0.000350881
0.000162609
9.7272e-05
7.55189e-05
7.28717e-05
7.91505e-05
8.91332e-05
0.000100065
0.000110621
0.000120264
0.000128846
0.000136421
0.000143113
0.000149057
0.000154373
0.000159167
0.000163523
0.00016751
0.000171183
0.000174583
0.000177744
0.00018069
0.000183444
0.000186021
0.000188439
0.000190709
0.000192841
0.000194841
0.000196717
0.00019849
0.000200195
0.000201878
0.000203589
0.000205312
0.000207121
0.000349444
0.000160035
8.80752e-05
5.5172e-05
3.7905e-05
2.78485e-05
2.15097e-05
1.72641e-05
1.42862e-05
1.21271e-05
1.05323e-05
9.35611e-06
8.51957e-06
7.98861e-06
7.76142e-06
7.85983e-06
8.32153e-06
9.19141e-06
1.0512e-05
1.23136e-05
1.4606e-05
1.7373e-05
2.05715e-05
2.41355e-05
2.79845e-05
3.20322e-05
3.61963e-05
4.04048e-05
4.46006e-05
4.87424e-05
5.28044e-05
5.67742e-05
6.06457e-05
6.44091e-05
6.79987e-05
0.000358584
0.000187145
0.000148213
0.000144791
0.000150203
0.000157225
0.000163962
0.000169949
0.000175098
0.000179405
0.00018285
0.000185417
0.000187087
0.000187874
0.000187837
0.000187069
0.00018569
0.000183825
0.000181596
0.000179111
0.000176464
0.000173731
0.00017097
0.000168228
0.000165543
0.000162944
0.000160449
0.000158059
0.000155748
0.00015346
0.000151137
0.000148752
0.000146427
0.000144368
0.000143279
0.000356567
0.000183631
0.000143666
0.000140213
0.000146098
0.000153602
0.000160651
0.000166775
0.000171946
0.00017624
0.000179665
0.000182208
0.00018386
0.000184639
0.000184599
0.000183831
0.000182452
0.000180589
0.000178366
0.000175893
0.000173265
0.000170559
0.000167833
0.000165134
0.000162495
0.000159931
0.000157441
0.000155012
0.00015263
0.000150315
0.000148156
0.000146308
0.000144978
0.000144122
0.00014379
0.000358756
0.000193422
0.000159184
0.000157149
0.000162086
0.000168008
0.000173515
0.00017831
0.000182486
0.000186088
0.000189083
0.00019141
0.000193023
0.000193904
0.000194075
0.000193597
0.000192553
0.000191044
0.000189169
0.000187025
0.000184697
0.000182256
0.000179761
0.000177256
0.000174782
0.000172368
0.000170037
0.000167795
0.00016563
0.000163505
0.000161375
0.000159205
0.000157085
0.000155104
0.000154021
0.000358226
0.000189506
0.000152847
0.000149911
0.000154915
0.000161222
0.000167081
0.000172157
0.000176559
0.000180337
0.00018347
0.000185915
0.000187634
0.000188615
0.000188882
0.00018849
0.000187525
0.000186087
0.000184279
0.000182201
0.00017994
0.00017757
0.00017515
0.000172728
0.00017034
0.000168007
0.000165739
0.000163529
0.000161367
0.000159255
0.000157236
0.000155409
0.000153957
0.000152896
0.000152618
0.000486599
0.000280434
0.000212152
0.00018853
0.000179334
0.000175562
0.000174237
0.000174134
0.000174708
0.00017567
0.000176864
0.000178207
0.000179648
0.000181157
0.000182713
0.000184299
0.000185897
0.000187489
0.000189058
0.000190586
0.000192059
0.000193467
0.000194801
0.000196057
0.000197233
0.00019833
0.000199349
0.000200291
0.000201158
0.000201959
0.000202711
0.000203447
0.000204219
0.000205
0.000206027
0.000350338
0.000162002
9.45676e-05
6.98429e-05
6.43494e-05
6.87325e-05
7.79647e-05
8.90372e-05
0.000100232
0.000110702
0.000120121
0.000128433
0.000135703
0.000142028
0.000147502
0.000152209
0.000156217
0.000159596
0.000162409
0.000164722
0.000166598
0.000168101
0.000169292
0.000170228
0.000170963
0.000171542
0.000172004
0.000172376
0.000172681
0.000172935
0.00017316
0.00017339
0.000173689
0.000174089
0.000174836
0.000351184
0.000163816
0.000101172
8.25773e-05
8.25541e-05
9.04346e-05
0.000101051
0.000111941
0.000122063
0.000131094
0.000139025
0.000145972
0.000152076
0.000157471
0.000162271
0.000166565
0.000170419
0.000173884
0.000176998
0.000179795
0.000182305
0.000184553
0.000186563
0.000188364
0.000189978
0.000191432
0.000192746
0.000193938
0.000195022
0.000196015
0.000196942
0.00019784
0.00019878
0.000199773
0.000201104
0.00035378
0.000170848
0.000118419
0.000109379
0.000115232
0.000125223
0.00013545
0.000144698
0.000152754
0.000159696
0.000165714
0.000170977
0.000175631
0.000179801
0.000183588
0.000187073
0.000190318
0.000193369
0.000196258
0.000199007
0.000201632
0.000204143
0.000206547
0.000208851
0.000211059
0.000213173
0.000215188
0.000217102
0.000218917
0.000220648
0.00022234
0.000224045
0.00022582
0.00022762
0.000229536
0.000356102
0.00018127
0.000138739
0.000133145
0.000137677
0.000144423
0.000151156
0.000157276
0.00016268
0.000167425
0.000171605
0.000175302
0.000178589
0.000181517
0.000184118
0.000186407
0.000188396
0.000190093
0.000191511
0.000192666
0.000193583
0.000194286
0.000194804
0.000195166
0.000195401
0.000195536
0.000195592
0.000195584
0.00019552
0.000195406
0.000195262
0.000195124
0.000195112
0.000195217
0.00019615
0.000462826
0.000247829
0.000185878
0.000166339
0.000159076
0.000156244
0.000155372
0.000155515
0.000156215
0.000157232
0.000158433
0.000159739
0.000161108
0.000162516
0.000163944
0.000165377
0.000166798
0.000168192
0.000169544
0.000170841
0.000172072
0.00017323
0.000174312
0.000175317
0.00017625
0.000177113
0.000177907
0.000178631
0.000179287
0.000179887
0.000180459
0.00018104
0.000181662
0.000182267
0.000183007
0.00035031
0.000161263
9.3973e-05
6.94704e-05
6.40385e-05
6.82457e-05
7.71357e-05
8.7831e-05
9.8728e-05
0.000109027
0.000118406
0.0001268
0.000134264
0.000140905
0.000146839
0.000152175
0.000157014
0.000161441
0.000165528
0.000169335
0.000172909
0.000176293
0.00017952
0.00018262
0.000185612
0.000188509
0.000191308
0.000194009
0.000196624
0.000199196
0.000201792
0.000204462
0.000207173
0.000209753
0.000211909
0.000396065
0.000222482
0.000177521
0.000164509
0.000160915
0.000160626
0.000161643
0.000163187
0.000164983
0.000166884
0.000168822
0.000170765
0.000172697
0.000174617
0.000176525
0.000178425
0.000180316
0.000182193
0.00018405
0.000185877
0.000187665
0.000189406
0.000191092
0.000192717
0.000194278
0.00019577
0.000197191
0.000198534
0.000199798
0.000200989
0.000202137
0.000203281
0.000204503
0.000205715
0.000207417
0.0003507
0.000164023
0.000100046
8.00742e-05
7.94894e-05
8.76089e-05
9.89447e-05
0.000110678
0.000121458
0.000130701
0.000138145
0.00014373
0.000147591
0.000149914
0.000150921
0.000150856
0.000149957
0.000148442
0.000146496
0.000144272
0.000141883
0.000139416
0.000136934
0.000134483
0.000132099
0.000129806
0.000127617
0.000125529
0.000123512
0.000121516
0.000119492
0.000117434
0.000115456
0.000113779
0.000112913
0.000350735
0.000164082
0.000100153
8.02775e-05
7.98044e-05
8.79984e-05
9.93554e-05
0.000111072
0.000121819
0.000131025
0.000138441
0.000144004
0.00014785
0.00015016
0.000151157
0.000151083
0.000150175
0.000148652
0.000146697
0.000144464
0.000142067
0.000139594
0.00013711
0.000134662
0.000132277
0.000129969
0.000127735
0.000125563
0.000123452
0.000121434
0.000119603
0.000118093
0.000117026
0.000116283
0.000115593
0.000356044
0.000192853
0.000159651
0.00015625
0.000159493
0.000164152
0.000168874
0.000173231
0.000177067
0.000180265
0.000182786
0.000184593
0.000185626
0.000185867
0.000185347
0.00018414
0.000182353
0.000180102
0.000177503
0.000174671
0.000171698
0.00016866
0.000165613
0.000162607
0.000159673
0.00015682
0.000154038
0.000151302
0.000148605
0.000146005
0.000143662
0.000141821
0.000140702
0.000140123
0.000139573
0.000356299
0.000193226
0.00015943
0.000154678
0.000156746
0.000160606
0.000164814
0.00016884
0.000172461
0.000175518
0.00017796
0.000179718
0.000180727
0.000180963
0.000180455
0.000179277
0.000177532
0.000175331
0.000172795
0.000170029
0.000167121
0.000164142
0.000161146
0.000158182
0.000155289
0.000152502
0.000149837
0.000147285
0.0001448
0.000142298
0.000139697
0.00013699
0.000134369
0.000132216
0.00013123
0.000349464
0.000160192
8.82501e-05
5.53485e-05
3.81306e-05
2.82316e-05
2.22209e-05
1.85633e-05
1.65547e-05
1.58936e-05
1.64773e-05
1.82806e-05
2.12714e-05
2.53566e-05
3.03629e-05
3.60551e-05
4.21771e-05
4.84941e-05
5.48183e-05
6.10165e-05
6.70038e-05
7.27332e-05
7.81847e-05
8.33568e-05
8.82587e-05
9.29052e-05
9.73123e-05
0.000101496
0.000105474
0.000109269
0.00011291
0.000116426
0.000119834
0.000123112
0.000126172
0.000449176
0.000260823
0.000203014
0.00018365
0.000176385
0.000173777
0.000173319
0.000173901
0.000174934
0.000176102
0.000177184
0.000178014
0.000178458
0.000178436
0.00017792
0.000176927
0.000175508
0.000173734
0.000171681
0.000169426
0.000167036
0.000164569
0.000162074
0.00015959
0.000157149
0.000154777
0.000152488
0.00015028
0.00014813
0.000146002
0.00014386
0.00014172
0.000139681
0.000138035
0.000136819
0.000350383
0.000162144
9.49956e-05
7.05822e-05
6.53399e-05
6.98773e-05
7.91941e-05
9.03098e-05
0.000101516
0.000111964
0.000121328
0.000129551
0.000136695
0.00014285
0.000148102
0.000152531
0.000156207
0.000159215
0.00016163
0.000163531
0.000164993
0.000166091
0.000166893
0.000167461
0.000167852
0.000168112
0.000168278
0.000168376
0.000168427
0.000168445
0.000168451
0.000168477
0.000168592
0.00016883
0.000169441
0.000836219
0.000518915
0.000379726
0.000331674
0.000311523
0.000301429
0.000296082
0.000293266
0.000291906
0.000291409
0.000291416
0.000291689
0.000292044
0.000292334
0.000292449
0.000292318
0.000291897
0.000291177
0.000290169
0.000288904
0.00028742
0.000285761
0.000283972
0.000282093
0.000280162
0.000278209
0.00027626
0.000274333
0.000272439
0.000270586
0.000268772
0.000267029
0.000265313
0.000263957
0.000261955
0.000899897
0.000525683
0.000377697
0.000327011
0.000305811
0.000295401
0.000289912
0.000287136
0.000285947
0.000285719
0.000286115
0.000286947
0.000288098
0.000289493
0.00029108
0.000292823
0.000294692
0.000296663
0.000298715
0.000300832
0.000303
0.000305209
0.00030745
0.000309716
0.000311994
0.000314272
0.000316536
0.000318782
0.000321024
0.000323295
0.000325616
0.000327971
0.000330268
0.000332247
0.000334431
0.000371236
0.000207289
0.000171432
0.000165901
0.000167746
0.000171434
0.000175439
0.000179309
0.000182857
0.00018604
0.000188834
0.000191204
0.000193115
0.000194536
0.000195452
0.000195873
0.000195829
0.000195371
0.000194559
0.000193461
0.000192142
0.000190663
0.000189077
0.000187429
0.000185756
0.000184087
0.000182441
0.000180825
0.000179239
0.000177681
0.000176163
0.000174722
0.000173493
0.000172463
0.000172349
0.000350595
0.000161995
9.58701e-05
7.29806e-05
6.91843e-05
7.46352e-05
8.42351e-05
9.51765e-05
0.000105991
0.000115999
0.000124972
0.000132898
0.000139896
0.000146103
0.000151646
0.000156636
0.000161171
0.000165329
0.000169172
0.000172751
0.000176103
0.000179257
0.000182238
0.000185063
0.000187748
0.0001903
0.000192726
0.000195028
0.000197213
0.000199305
0.000201346
0.000203382
0.000205445
0.000207488
0.00020946
0.000353894
0.000188834
0.000154788
0.000152035
0.000156332
0.000161958
0.00016746
0.000172429
0.000176745
0.000180297
0.000183084
0.000185078
0.000186237
0.000186556
0.000186079
0.000184892
0.000183111
0.000180859
0.000178261
0.000175428
0.000172456
0.000169417
0.000166369
0.000163365
0.000160433
0.000157584
0.000154806
0.000152073
0.000149382
0.000146792
0.00014447
0.000142659
0.000141576
0.000141014
0.000140429
0.000353626
0.000188804
0.00015474
0.000151543
0.000155389
0.000160684
0.000165956
0.000170766
0.00017497
0.000178445
0.000181182
0.000183142
0.000184281
0.000184591
0.000184113
0.000182934
0.000181167
0.000178935
0.000176361
0.000173554
0.000170607
0.000167589
0.000164555
0.000161557
0.000158635
0.000155821
0.000153134
0.000150561
0.000148053
0.000145524
0.000142891
0.000140149
0.000137505
0.000135351
0.00013443
0.000349445
0.000160103
8.81325e-05
5.52177e-05
3.79418e-05
2.78784e-05
2.15333e-05
1.72809e-05
1.42936e-05
1.21196e-05
1.05e-05
9.28252e-06
8.37879e-06
7.7422e-06
7.35591e-06
7.22578e-06
7.37518e-06
7.83969e-06
8.66036e-06
9.87582e-06
1.15141e-05
1.3586e-05
1.60807e-05
1.89657e-05
2.21893e-05
2.56875e-05
2.93902e-05
3.32295e-05
3.7145e-05
4.10877e-05
4.50221e-05
4.89255e-05
5.27843e-05
5.65844e-05
6.02755e-05
0.000378352
0.000216812
0.00018153
0.000176014
0.000177806
0.000181407
0.000185228
0.000188879
0.000192202
0.000195179
0.0001978
0.000200039
0.000201851
0.000203198
0.000204062
0.000204445
0.000204373
0.000203889
0.000203048
0.000201914
0.00020055
0.000199015
0.000197363
0.00019564
0.000193884
0.000192129
0.000190399
0.000188712
0.000187076
0.000185485
0.000183925
0.000182372
0.00018087
0.000179363
0.000178497
0.000356694
0.000180259
0.00013671
0.000131531
0.000136891
0.000144393
0.000151682
0.000158194
0.000163882
0.000168854
0.000173236
0.000177141
0.000180661
0.000183865
0.000186801
0.000189503
0.000191986
0.000194262
0.000196334
0.000198208
0.000199893
0.000201396
0.00020273
0.00020391
0.000204952
0.000205874
0.000206691
0.000207415
0.000208053
0.000208615
0.00020912
0.000209602
0.000210148
0.000210763
0.000211916
0.000380185
0.000208481
0.000165085
0.000152994
0.000150402
0.000151136
0.000153105
0.000155515
0.000158046
0.000160561
0.000163009
0.000165379
0.000167667
0.000169888
0.000172061
0.000174202
0.000176326
0.000178438
0.000180543
0.000182644
0.000184737
0.00018682
0.000188891
0.000190945
0.000192977
0.000194975
0.000196924
0.000198809
0.00020063
0.000202417
0.00020423
0.000206126
0.000208133
0.000210087
0.000212037
0.000863621
0.000531878
0.000387827
0.000338093
0.000316947
0.000306193
0.000300474
0.000297485
0.000296042
0.000295496
0.000295443
0.00029561
0.000295786
0.000295813
0.000295584
0.000295034
0.000294139
0.000292905
0.000291364
0.000289561
0.000287547
0.000285374
0.000283093
0.000280746
0.000278373
0.000276003
0.000273662
0.000271363
0.000269114
0.000266917
0.000264769
0.00026271
0.0002607
0.000259143
0.000256915
0.000844881
0.000516898
0.000373778
0.00032535
0.000305084
0.000294916
0.000289618
0.00028694
0.000285738
0.000285391
0.000285517
0.00028584
0.000286155
0.000286305
0.000286184
0.000285726
0.00028491
0.000283746
0.000282268
0.000280527
0.000278575
0.000276468
0.000274257
0.000271985
0.00026969
0.000267397
0.000265128
0.000262897
0.000260716
0.000258604
0.000256585
0.000254721
0.00025296
0.000251623
0.000249467
0.000356969
0.00018492
0.000146011
0.000142605
0.000148081
0.000155078
0.000161739
0.000167706
0.000172985
0.000177671
0.000181849
0.000185602
0.000189017
0.000192166
0.000195099
0.000197849
0.000200443
0.000202893
0.000205207
0.000207391
0.000209444
0.000211371
0.000213176
0.000214867
0.000216454
0.000217944
0.000219339
0.000220633
0.000221822
0.000222922
0.000223982
0.000225066
0.00022626
0.000227442
0.000229125
0.00034983
0.000160485
9.01135e-05
6.06994e-05
4.92787e-05
4.77388e-05
5.22978e-05
6.05002e-05
7.05196e-05
8.10581e-05
9.13082e-05
0.000100854
0.000109541
0.000117365
0.000124391
0.000130713
0.000136427
0.000141628
0.000146395
0.000150795
0.000154885
0.000158713
0.000162316
0.000165728
0.000168973
0.000172068
0.000175023
0.000177846
0.00018055
0.000183169
0.000185747
0.000188323
0.000190896
0.000193375
0.00019561
0.00035029
0.000161281
9.40484e-05
6.96781e-05
6.44436e-05
6.88501e-05
7.7879e-05
8.8632e-05
9.95123e-05
0.000109727
0.00011898
0.000127223
0.00013453
0.000141018
0.000146809
0.000152017
0.000156745
0.000161076
0.00016508
0.000168812
0.000172315
0.000175624
0.000178766
0.000181763
0.000184631
0.000187379
0.00019001
0.000192525
0.000194936
0.00019727
0.000199577
0.000201901
0.000204245
0.00020652
0.000208581
0.000352628
0.000170004
0.000119331
0.000111308
0.000117239
0.000126775
0.000136361
0.000144967
0.000152444
0.000158906
0.000164517
0.000169433
0.000173791
0.000177708
0.000181279
0.000184584
0.000187681
0.000190616
0.000193425
0.000196131
0.000198755
0.000201308
0.000203801
0.000206239
0.000208626
0.000210956
0.000213217
0.000215399
0.000217508
0.000219576
0.000221668
0.000223839
0.000226092
0.000228296
0.000230226
0.000349923
0.000161201
9.10788e-05
6.2092e-05
5.13525e-05
5.0637e-05
5.59616e-05
6.47307e-05
7.50862e-05
8.57731e-05
9.60435e-05
0.000105522
0.000114076
0.000121701
0.000128447
0.000134381
0.000139569
0.000144076
0.000147966
0.0001513
0.000154142
0.000156552
0.00015859
0.000160314
0.000161779
0.000163035
0.000164123
0.000165079
0.000165929
0.000166696
0.000167406
0.000168091
0.000168806
0.000169579
0.000170603
0.000351971
0.000170004
0.00011721
0.000107946
0.000114149
0.000124859
0.000135873
0.000145759
0.000154148
0.000160992
0.000166273
0.000170106
0.000172596
0.000173862
0.000174051
0.000173339
0.000171911
0.000169943
0.000167596
0.000165001
0.000162262
0.000159458
0.000156651
0.000153885
0.000151198
0.000148615
0.00014615
0.000143799
0.000141527
0.000139269
0.000136959
0.000134578
0.000132265
0.000130285
0.000129297
0.000352106
0.000170511
0.00011842
0.000109406
0.000115449
0.000125844
0.000136559
0.000146212
0.000154428
0.000161153
0.000166389
0.000170198
0.000172677
0.000173936
0.000174122
0.000173406
0.000171971
0.000169995
0.000167636
0.000165029
0.00016228
0.000159468
0.000156658
0.000153895
0.000151209
0.00014861
0.00014609
0.000143631
0.000141229
0.000138925
0.000136841
0.000135157
0.00013404
0.000133335
0.000132724
0.000349455
0.000160209
8.82333e-05
5.53016e-05
3.80117e-05
2.79544e-05
2.16476e-05
1.7484e-05
1.46673e-05
1.27939e-05
1.16736e-05
1.12431e-05
1.15166e-05
1.25479e-05
1.43932e-05
1.70779e-05
2.05723e-05
2.47851e-05
2.9574e-05
3.47686e-05
4.01969e-05
4.57067e-05
5.11776e-05
5.65245e-05
6.16953e-05
6.66609e-05
7.14075e-05
7.59336e-05
8.02454e-05
8.43548e-05
8.82791e-05
9.20402e-05
9.56564e-05
9.91294e-05
0.000102419
0.00034959
0.000160278
8.86941e-05
5.68115e-05
4.15246e-05
3.482e-05
3.35444e-05
3.61723e-05
4.16549e-05
4.90631e-05
5.75596e-05
6.6463e-05
7.5291e-05
8.37484e-05
9.16848e-05
9.90412e-05
0.000105818
0.00011205
0.000117776
0.000123058
0.000127948
0.000132494
0.00013674
0.000140724
0.000144479
0.000148029
0.000151395
0.00015459
0.000157632
0.000160552
0.00016339
0.000166183
0.000168936
0.000171588
0.000174012
0.000351454
0.000165466
0.000103659
8.65651e-05
8.86494e-05
9.85879e-05
0.000110763
0.000122631
0.000133257
0.000142431
0.000150211
0.000156722
0.000162087
0.00016641
0.000169786
0.000172305
0.000174063
0.000175161
0.000175704
0.000175799
0.000175545
0.000175028
0.000174326
0.000173502
0.000172605
0.000171677
0.000170747
0.000169838
0.000168963
0.000168124
0.00016732
0.000166541
0.000165808
0.00016509
0.000164779
0.000354719
0.000174169
0.00012409
0.00011672
0.000123644
0.000134189
0.000144563
0.00015362
0.000161208
0.000167503
0.000172672
0.00017684
0.000180074
0.000182449
0.000184026
0.000184877
0.000185089
0.000184762
0.000183998
0.000182899
0.000181557
0.000180048
0.000178438
0.00017678
0.000175113
0.000173466
0.000171857
0.000170293
0.000168771
0.000167287
0.000165854
0.000164512
0.000163374
0.000162469
0.000162261
0.000368443
0.000200468
0.000161349
0.00015287
0.000152618
0.000155021
0.000158321
0.000161843
0.000165287
0.000168528
0.000171528
0.000174283
0.000176799
0.000179083
0.000181134
0.000182944
0.000184507
0.000185821
0.00018689
0.000187724
0.000188341
0.000188764
0.000189018
0.000189131
0.00018913
0.000189038
0.000188877
0.000188658
0.000188387
0.000188072
0.000187731
0.000187407
0.000187229
0.000187179
0.000188
0.000352195
0.000166783
0.000109154
9.58639e-05
9.9721e-05
0.000109569
0.00012067
0.000131187
0.000140557
0.000148707
0.000155762
0.000161908
0.000167313
0.000172116
0.000176422
0.000180314
0.000183854
0.000187088
0.000190049
0.000192763
0.000195253
0.000197539
0.00019964
0.000201575
0.000203365
0.000205025
0.000206565
0.000207987
0.000209295
0.000210509
0.000211672
0.000212845
0.000214085
0.000215342
0.00021673
0.000349485
0.000160426
8.84342e-05
5.5572e-05
3.85057e-05
2.89202e-05
2.34556e-05
2.06557e-05
1.98802e-05
2.08472e-05
2.34029e-05
2.73966e-05
3.26186e-05
3.87892e-05
4.55852e-05
5.26877e-05
5.98254e-05
6.67985e-05
7.34797e-05
7.98005e-05
8.57335e-05
9.12778e-05
9.64476e-05
0.000101265
0.000105755
0.000109944
0.000113857
0.000117518
0.000120948
0.000124173
0.000127224
0.000130136
0.000132938
0.000135635
0.00013819
0.000349584
0.000160677
8.89536e-05
5.67457e-05
4.09582e-05
3.35383e-05
3.13296e-05
3.28975e-05
3.73543e-05
4.39284e-05
5.18713e-05
6.05035e-05
6.92819e-05
7.78255e-05
8.58999e-05
9.3386e-05
0.000100234
0.000106436
0.000112012
0.000116988
0.000121409
0.00012533
0.000128805
0.000131888
0.00013463
0.000137082
0.000139288
0.000141287
0.000143114
0.000144798
0.000146374
0.000147876
0.000149348
0.000150817
0.000152354
0.000356274
0.000177836
0.000130749
0.000125309
0.000132846
0.000143138
0.000152892
0.000161298
0.000168345
0.000174207
0.000179043
0.000182965
0.000186033
0.00018829
0.000189792
0.000190602
0.000190799
0.000190473
0.000189718
0.000188628
0.000187289
0.000185777
0.000184155
0.000182475
0.000180778
0.000179097
0.000177456
0.000175872
0.000174349
0.00017288
0.00017145
0.000170031
0.000168658
0.000167291
0.000166503
0.000354851
0.000176463
0.000131426
0.000126412
0.000132827
0.000141501
0.00014977
0.000157042
0.000163336
0.000168793
0.000173575
0.000177804
0.000181595
0.000185041
0.000188222
0.000191203
0.000194029
0.000196734
0.000199343
0.000201869
0.000204323
0.000206712
0.000209037
0.000211301
0.000213504
0.000215641
0.000217703
0.000219679
0.000221569
0.000223393
0.000225206
0.000227069
0.000229026
0.000231001
0.000232969
0.000359665
0.000186571
0.000145902
0.000142148
0.000147924
0.000155393
0.000162414
0.000168503
0.000173712
0.000178164
0.000181952
0.000185124
0.000187697
0.00018968
0.000191086
0.00019194
0.000192286
0.000192181
0.000191696
0.000190901
0.000189867
0.000188659
0.00018733
0.00018593
0.000184497
0.000183059
0.000181637
0.00018024
0.000178868
0.000177518
0.000176202
0.000174956
0.000173902
0.000173053
0.000173039
0.000361164
0.000189864
0.000150872
0.000144563
0.000146517
0.000150529
0.000154896
0.000159096
0.000162985
0.000166552
0.00016983
0.000172866
0.000175702
0.000178379
0.000180933
0.000183398
0.000185797
0.00018815
0.00019047
0.000192767
0.000195046
0.000197315
0.00019958
0.000201846
0.000204111
0.000206363
0.000208579
0.00021074
0.000212858
0.000214996
0.000217254
0.000219695
0.000222249
0.000224626
0.000226464
0.000349511
0.000161099
8.90266e-05
5.59478e-05
3.85468e-05
2.84411e-05
2.21599e-05
1.81131e-05
1.55311e-05
1.40442e-05
1.3497e-05
1.3851e-05
1.51219e-05
1.73282e-05
2.04491e-05
2.43987e-05
2.90228e-05
3.41176e-05
3.94611e-05
4.48469e-05
5.01042e-05
5.51104e-05
5.97904e-05
6.41097e-05
6.80637e-05
7.16687e-05
7.49529e-05
7.79502e-05
8.0696e-05
8.32242e-05
8.55672e-05
8.77559e-05
8.98264e-05
9.17978e-05
9.37499e-05
0.000350583
0.000161741
9.56873e-05
7.31161e-05
6.9848e-05
7.5834e-05
8.58071e-05
9.69247e-05
0.000107776
0.000117765
0.000126716
0.000134652
0.000141678
0.000147917
0.000153493
0.000158513
0.000163074
0.000167257
0.000171131
0.000174749
0.000178157
0.000181394
0.00018449
0.000187474
0.000190363
0.000193165
0.000195877
0.000198492
0.000201023
0.000203513
0.000206036
0.000208642
0.000211296
0.000213815
0.000215917
0.000846855
0.00050238
0.00036178
0.00031522
0.00029569
0.000285913
0.00028086
0.000278387
0.000277402
0.000277281
0.000277673
0.000278353
0.000279158
0.000279959
0.000280653
0.000281165
0.000281442
0.00028146
0.000281217
0.000280726
0.000280015
0.000279117
0.000278068
0.000276904
0.000275656
0.000274353
0.000273017
0.000271666
0.000270315
0.000268984
0.000267694
0.000266502
0.000265379
0.000264594
0.000263101
0.000349776
0.000160433
8.97771e-05
5.97955e-05
4.75318e-05
4.49389e-05
4.83892e-05
5.55976e-05
6.48497e-05
7.48818e-05
8.48631e-05
9.43243e-05
0.000103056
0.000111003
0.000118192
0.000124695
0.000130595
0.000135973
0.000140904
0.000145452
0.000149671
0.000153607
0.000157298
0.000160776
0.000164066
0.000167187
0.000170149
0.000172962
0.000175639
0.00017821
0.000180715
0.000183194
0.000185659
0.000188049
0.000190251
0.000349448
0.000160143
8.81908e-05
5.52728e-05
3.79885e-05
2.7917e-05
2.15642e-05
1.73029e-05
1.4303e-05
1.21095e-05
1.04583e-05
9.18959e-06
8.20427e-06
7.44121e-06
6.86464e-06
6.45738e-06
6.217e-06
6.15358e-06
6.28812e-06
6.65082e-06
7.27858e-06
8.21168e-06
9.48953e-06
1.11459e-05
1.32043e-05
1.56736e-05
1.85451e-05
2.17916e-05
2.53688e-05
2.92193e-05
3.32788e-05
3.74825e-05
4.17694e-05
4.60818e-05
5.03388e-05
0.000353323
0.000172795
0.000125285
0.000118935
0.000125096
0.000134122
0.000142974
0.000150851
0.000157675
0.000163579
0.00016873
0.00017328
0.000177355
0.000181055
0.000184461
0.000187639
0.000190639
0.0001935
0.000196254
0.000198924
0.000201528
0.000204083
0.0002066
0.000209092
0.000211563
0.000214005
0.000216401
0.000218732
0.000221009
0.000223291
0.000225673
0.000228222
0.000230878
0.000233379
0.000235312
0.000350065
0.000160964
9.15378e-05
6.37264e-05
5.44409e-05
5.51395e-05
6.1507e-05
7.08024e-05
8.12033e-05
9.16107e-05
0.000101431
0.000110423
0.000118531
0.000125805
0.000132331
0.000138205
0.00014352
0.000148355
0.00015278
0.00015685
0.000160611
0.000164099
0.000167345
0.000170375
0.00017321
0.000175867
0.000178361
0.000180701
0.000182901
0.000184982
0.00018698
0.00018894
0.0001909
0.000192841
0.000194767
0.000492469
0.0002947
0.000225854
0.000201296
0.000191509
0.000187448
0.00018606
0.000186028
0.000186683
0.000187671
0.000188784
0.000189874
0.000190828
0.000191558
0.000192005
0.000192136
0.000191943
0.000191441
0.000190664
0.000189653
0.000188453
0.000187111
0.000185669
0.000184165
0.000182629
0.000181087
0.000179555
0.000178043
0.000176556
0.0001751
0.000173692
0.000172373
0.000171203
0.00017027
0.000169535
0.000883244
0.000533522
0.000384411
0.000331467
0.000309191
0.000298227
0.00029241
0.000289418
0.000288089
0.000287777
0.000288124
0.000288921
0.000290043
0.000291412
0.000292977
0.000294699
0.000296552
0.000298511
0.000300557
0.000302672
0.000304843
0.000307057
0.000309305
0.000311575
0.000313856
0.000316133
0.000318395
0.000320641
0.000322887
0.000325159
0.000327468
0.000329789
0.000332026
0.00033395
0.000336028
0.000349885
0.000160642
9.0074e-05
6.02292e-05
4.8201e-05
4.5938e-05
4.97455e-05
5.72772e-05
6.67974e-05
7.70438e-05
8.72097e-05
9.68355e-05
0.000105713
0.000113789
0.000121089
0.000127677
0.000133632
0.000139034
0.000143959
0.000148474
0.00015264
0.000156505
0.000160113
0.0001635
0.000166696
0.000169722
0.000172588
0.000175301
0.00017787
0.000180324
0.000182711
0.000185083
0.000187453
0.000189744
0.000191853
0.000349643
0.00016181
8.96878e-05
5.6804e-05
4.00025e-05
3.11384e-05
2.70243e-05
2.63287e-05
2.83755e-05
3.26062e-05
3.83795e-05
4.49928e-05
5.17927e-05
5.82723e-05
6.41071e-05
6.91355e-05
7.33163e-05
7.66855e-05
7.93225e-05
8.13259e-05
8.27987e-05
8.38391e-05
8.45356e-05
8.49654e-05
8.51932e-05
8.52724e-05
8.52452e-05
8.51433e-05
8.499e-05
8.48032e-05
8.46013e-05
8.44079e-05
8.42631e-05
8.41944e-05
8.42984e-05
0.000349474