/*--------------------------------*- C++ -*----------------------------------*\
| =========                 |                                                 |
| \\      /  F ield         | OpenFOAM: The Open Source CFD Toolbox           |
|  \\    /   O peration     | Version:  2.4.x                                 |
|   \\  /    A nd           | Web:      www.OpenFOAM.org                      |
|    \\/     M anipulation  |                                                 |
\*---------------------------------------------------------------------------*/
FoamFile
{
    version     2.0;
    format      ascii;
    class       volScalarField;
    location    "9990/coolant";
    object      mut;
}
// * * * * * * * * * * * * * * * * * * * * * * * * * * * * * * * * * * * * * //

dimensions      [1 -1 -1 0 0 0 0];

internalField   nonuniform List<scalar> 
109760
(
0.00166908
0.0011465
0.000893008
0.000753796
0.000672562
0.000627867
0.00061362
0.000631602
0.000686609
0.000781877
0.000917095
0.00108982
0.00129627
0.00153059
0.00178527
0.00205254
0.00232557
0.00259897
0.00286873
0.00313201
0.00338693
0.00363242
0.00386798
0.00409359
0.00430946
0.00451591
0.00471317
0.00490135
0.00508066
0.00525179
0.00541628
0.00557628
0.00573343
0.00588674
0.00603252
0.00167389
0.0011589
0.000950125
0.000918914
0.00102159
0.00121318
0.0014501
0.00170716
0.0019698
0.00222802
0.00247518
0.00270796
0.00292504
0.0031263
0.00331225
0.0034838
0.00364206
0.00378818
0.00392328
0.00404844
0.00416465
0.00427283
0.00437386
0.00446861
0.00455784
0.00464208
0.00472147
0.00479586
0.00486528
0.00493066
0.00499428
0.00505894
0.00512618
0.00519275
0.00525477
0.00110524
0.0007382
0.000686753
0.000692482
0.000710173
0.000731501
0.000752979
0.000773031
0.000790992
0.000806743
0.000820253
0.000831457
0.000840308
0.000846789
0.000850964
0.00085298
0.000853054
0.000851458
0.00084849
0.000844444
0.000839596
0.000834185
0.000828418
0.000822463
0.000816458
0.000810503
0.00080466
0.000798935
0.000793292
0.00078768
0.00078215
0.000776854
0.000772621
0.000769049
0.000771294
0.00162523
0.00114829
0.00106802
0.00114252
0.0012707
0.00141234
0.00155046
0.00167793
0.00179251
0.00189438
0.00198476
0.002065
0.0021365
0.00220058
0.00225834
0.00231075
0.00235862
0.00240266
0.00244345
0.0024815
0.0025172
0.00255093
0.00258302
0.00261383
0.00264361
0.00267242
0.00270001
0.002726
0.0027503
0.0027737
0.00279804
0.00282528
0.0028559
0.00288631
0.00291176
0.00102583
0.000661068
0.000607604
0.000612266
0.000629473
0.000649975
0.000670389
0.000689312
0.0007065
0.000722018
0.000736036
0.000748747
0.000760337
0.000770978
0.000780815
0.00078996
0.000798486
0.000806439
0.000813844
0.000820719
0.000827079
0.00083294
0.000838324
0.000843261
0.000847789
0.000851947
0.000855769
0.000859265
0.000862435
0.00086528
0.000867879
0.000870351
0.000873264
0.0008762
0.000882814
0.00167174
0.00115319
0.000934255
0.000883276
0.00095964
0.00112837
0.00135023
0.00159899
0.00185851
0.00211736
0.00236787
0.00260557
0.00282832
0.00303554
0.00322754
0.00340515
0.00356942
0.00372153
0.00386261
0.00399375
0.00411595
0.00423017
0.00433732
0.00443826
0.00453375
0.00462428
0.00470995
0.00479069
0.00486673
0.00493933
0.00501099
0.00508442
0.00516043
0.00523479
0.00530041
0.00166884
0.00114407
0.000889674
0.000748591
0.000662281
0.000605292
0.000565372
0.000536073
0.000513745
0.0004962
0.00048206
0.000470431
0.000460714
0.000452511
0.00044557
0.000439761
0.000435074
0.000431622
0.000429665
0.000429633
0.000432157
0.000438085
0.000448492
0.000464671
0.000488123
0.000520566
0.000564004
0.000620826
0.000693862
0.000786284
0.000901319
0.00104189
0.00121017
0.00140723
0.00162983
0.00167517
0.001169
0.000996234
0.001021
0.00116681
0.00137002
0.00159602
0.0018276
0.00205436
0.00227006
0.00247146
0.00265761
0.00282872
0.00298561
0.00312935
0.00326109
0.00338194
0.00349294
0.00359499
0.00368887
0.0037753
0.00385489
0.00392825
0.00399595
0.00405853
0.00411651
0.00417024
0.00421997
0.00426588
0.00430843
0.00434858
0.00438789
0.00442841
0.00447035
0.00451721
0.0016689
0.00114554
0.000891288
0.000750242
0.000663892
0.000606891
0.0005671
0.00053825
0.00051702
0.000501797
0.000492153
0.000488647
0.000492744
0.000506702
0.000533301
0.000575467
0.000636023
0.00071777
0.000823553
0.000955795
0.00111563
0.00130225
0.00151288
0.00174326
0.00198834
0.00224306
0.00250289
0.00276417
0.00302419
0.00328113
0.003534
0.00378258
0.00402716
0.00426795
0.00450283
0.00156877
0.00110884
0.00104682
0.00111857
0.00122602
0.00133787
0.00144304
0.00153757
0.00162007
0.00169042
0.00174843
0.00179424
0.00182818
0.00185092
0.00186358
0.00186756
0.00186441
0.00185567
0.00184275
0.00182686
0.00180901
0.00179
0.00177041
0.00175072
0.00173132
0.00171255
0.00169467
0.00167776
0.00166151
0.00164509
0.00162735
0.00160727
0.00158581
0.00156529
0.00155649
0.00160331
0.00114268
0.0010813
0.00115694
0.00127148
0.00139133
0.00150367
0.0016042
0.0016918
0.00176659
0.00182857
0.00187778
0.00191451
0.00193943
0.00195362
0.00195851
0.00195573
0.00194692
0.00193361
0.00191713
0.00189857
0.00187879
0.00185845
0.00183808
0.00181807
0.00179861
0.00177965
0.00176089
0.00174191
0.00172269
0.00170426
0.00168913
0.00168146
0.00168266
0.00169582
0.00151283
0.00107193
0.00103197
0.00111013
0.00121052
0.00130826
0.00139633
0.00147291
0.00153901
0.00159537
0.00164229
0.00167986
0.00170825
0.00172789
0.00173952
0.00174414
0.00174286
0.00173684
0.0017272
0.00171493
0.00170084
0.00168562
0.00166977
0.0016537
0.00163775
0.0016222
0.00160728
0.0015931
0.00157953
0.00156606
0.00155199
0.0015365
0.00152015
0.0015035
0.00149603
0.00153841
0.00108524
0.00103417
0.0011079
0.00121051
0.00131391
0.00140809
0.00149047
0.00156189
0.00162304
0.00167416
0.00171539
0.00174692
0.00176918
0.00178289
0.00178903
0.00178877
0.00178336
0.001774
0.00176177
0.00174756
0.00173214
0.00171606
0.00169981
0.00168371
0.00166801
0.00165275
0.00163782
0.00162294
0.00160793
0.00159314
0.00157973
0.00157047
0.00156637
0.001574
0.000833454
0.000579787
0.000515907
0.000496791
0.000492841
0.000495012
0.000499633
0.000505035
0.000510577
0.000516038
0.000521315
0.000526371
0.000531208
0.000535843
0.000540299
0.000544593
0.00054873
0.000552708
0.000556517
0.000560146
0.000563585
0.000566824
0.00056986
0.000572696
0.00057534
0.000577802
0.000580088
0.000582197
0.000584128
0.000585883
0.000587511
0.000589089
0.000590881
0.000592711
0.000595998
0.00167277
0.00116209
0.000965369
0.00095261
0.00106895
0.00126174
0.00149126
0.0017353
0.00197986
0.00221588
0.0024381
0.00264399
0.00283264
0.00300393
0.00315816
0.00329579
0.00341745
0.00352402
0.00361654
0.00369626
0.00376455
0.00382284
0.00387259
0.00391518
0.00395191
0.00398395
0.00401227
0.00403759
0.0040604
0.00408101
0.00409983
0.00411764
0.00413646
0.00415775
0.00418869
0.00167375
0.00117364
0.00102272
0.00106927
0.00122041
0.00141673
0.00163003
0.00184479
0.00205156
0.00224535
0.00242409
0.00258747
0.00273609
0.00287094
0.00299316
0.00310378
0.00320371
0.00329377
0.0033747
0.00344721
0.00351201
0.0035698
0.00362128
0.0036672
0.00370827
0.00374519
0.00377858
0.00380887
0.00383641
0.00386147
0.00388456
0.00390654
0.00392927
0.00395349
0.00398606
0.00166963
0.00119789
0.00111888
0.00122154
0.00138946
0.00157364
0.0017546
0.00192401
0.00207885
0.00221838
0.00234353
0.00245558
0.00255596
0.00264617
0.00272754
0.00280134
0.00286864
0.00293031
0.00298707
0.00303949
0.00308804
0.00313311
0.00317504
0.00321415
0.00325073
0.003285
0.00331705
0.00334687
0.00337446
0.0034001
0.00342463
0.00344939
0.00347605
0.00350428
0.00353713
0.00158179
0.00111086
0.00103293
0.00109414
0.00119811
0.0013105
0.0014189
0.00151821
0.00160689
0.00168515
0.00175387
0.00181409
0.00186682
0.00191291
0.00195301
0.00198761
0.00201717
0.0020421
0.00206283
0.00207981
0.00209351
0.00210441
0.00211297
0.00211964
0.00212481
0.00212886
0.00213207
0.00213461
0.00213651
0.00213777
0.00213846
0.00213892
0.00214067
0.00214392
0.00215759
0.000621077
0.000410682
0.00036056
0.000346193
0.000343604
0.000345385
0.00034877
0.000352708
0.00035677
0.000360766
0.000364608
0.000368262
0.000371728
0.000375023
0.000378162
0.000381155
0.000384007
0.000386716
0.000389279
0.000391688
0.00039394
0.000396032
0.000397967
0.000399754
0.000401409
0.000402942
0.000404359
0.000405649
0.000406806
0.00040784
0.000408816
0.000409824
0.000411037
0.000412234
0.000414279
0.00167245
0.00115825
0.000961871
0.000951075
0.00106793
0.0012586
0.00148523
0.00172754
0.00197249
0.0022111
0.00243788
0.00265003
0.00284665
0.00302792
0.00319468
0.00334802
0.0034892
0.00361943
0.00373989
0.00385164
0.00395564
0.00405278
0.00414392
0.00422987
0.00431132
0.00438866
0.0044619
0.00453085
0.00459566
0.00465762
0.00471933
0.00478359
0.00485106
0.00491699
0.00497393
0.00110241
0.000719543
0.000664278
0.000672863
0.000694026
0.000717425
0.00073994
0.000760294
0.000778582
0.000795009
0.000809844
0.000823319
0.000835638
0.000846995
0.000857567
0.000867501
0.000876905
0.000885855
0.000894399
0.000902564
0.000910365
0.000917808
0.0009249
0.000931652
0.000938076
0.000944181
0.000949963
0.000955391
0.000960442
0.000965129
0.000969595
0.000974063
0.000979136
0.000984323
0.00099289
0.00167312
0.0011753
0.00101592
0.00105851
0.00121892
0.00143075
0.00166099
0.00189205
0.00211202
0.0023127
0.00248791
0.00263456
0.00275228
0.00284223
0.00290684
0.00294935
0.00297335
0.00298245
0.00297992
0.00296864
0.00295094
0.00292871
0.00290343
0.00287633
0.00284843
0.00282064
0.00279365
0.00276768
0.00274217
0.00271558
0.0026858
0.00265145
0.00261447
0.00258176
0.00256773
0.0016734
0.00117595
0.00101764
0.00106279
0.00122643
0.00144063
0.00167201
0.0019034
0.0021233
0.00232376
0.00249887
0.00264549
0.00276323
0.00285323
0.0029179
0.00296046
0.0029845
0.00299358
0.002991
0.0029796
0.00296176
0.00293941
0.00291413
0.00288717
0.00285947
0.00283155
0.00280343
0.00277476
0.00274517
0.00271531
0.00268789
0.00266815
0.00266251
0.00267237
0.00268997
0.00140059
0.000963562
0.000923194
0.000982716
0.00105999
0.00113652
0.00120671
0.00126865
0.00132192
0.00136626
0.00140194
0.00142919
0.00144816
0.00145926
0.0014632
0.00146097
0.00145368
0.0014424
0.00142817
0.00141195
0.0013945
0.00137638
0.00135805
0.00133988
0.00132215
0.00130491
0.001288
0.00127104
0.0012537
0.0012363
0.00122044
0.00120917
0.00120633
0.00121176
0.00122341
0.00133374
0.000894687
0.000848051
0.000895049
0.000959285
0.00102413
0.00108421
0.00113747
0.00118329
0.00122143
0.00125207
0.00127534
0.00129135
0.00130044
0.00130325
0.00130064
0.00129359
0.00128304
0.00126997
0.00125517
0.00123927
0.00122275
0.00120598
0.00118928
0.00117292
0.0011572
0.00114233
0.00112827
0.00111463
0.00110051
0.00108476
0.00106662
0.00104745
0.00103034
0.00102455
0.00166901
0.00114637
0.000892572
0.000752305
0.000668208
0.00061703
0.000590013
0.000585975
0.000608171
0.000661622
0.000750349
0.000876114
0.00103894
0.00123702
0.00146572
0.00171785
0.00198521
0.00226025
0.00253693
0.00281085
0.00307902
0.00333953
0.00359128
0.00383374
0.00406678
0.00429046
0.00450488
0.0047101
0.00490628
0.00509395
0.00527442
0.00544958
0.00562105
0.00578834
0.00594823
0.000893048
0.000609261
0.000553991
0.000542697
0.000544173
0.000550923
0.000559599
0.000568575
0.000576952
0.000584381
0.000590584
0.000595316
0.000598378
0.000599687
0.000599292
0.000597348
0.000594076
0.000589731
0.000584563
0.000578803
0.000572654
0.000566278
0.000559806
0.000553348
0.000547
0.000540844
0.000534935
0.000529268
0.000523757
0.000518208
0.000512399
0.000506215
0.000500063
0.00049457
0.000492063
0.00167283
0.00116289
0.000968648
0.000958345
0.00107491
0.0012668
0.00149639
0.00174122
0.00198633
0.00222214
0.00244331
0.00264735
0.00283325
0.00300083
0.00315025
0.00328201
0.00339686
0.00349589
0.0035804
0.00365191
0.00371201
0.00376233
0.00380446
0.00383988
0.00386992
0.00389575
0.00391832
0.00393832
0.00395617
0.0039721
0.00398651
0.00400019
0.00401534
0.00403369
0.00406212
0.0010345
0.000814923
0.000697114
0.000651515
0.000631413
0.000621099
0.000615566
0.000612631
0.00061121
0.000610689
0.000610696
0.000610982
0.000611354
0.000611657
0.000611778
0.00061164
0.0006112
0.000610446
0.000609388
0.000608058
0.000606494
0.000604742
0.000602846
0.000600848
0.000598787
0.000596697
0.000594603
0.000592529
0.000590485
0.00058848
0.000586508
0.000584596
0.000582687
0.000581142
0.000578862
0.00084057
0.00064245
0.000544565
0.000506709
0.000490009
0.000481597
0.000477102
0.000474812
0.000473828
0.000473639
0.000473967
0.000474655
0.000475606
0.000476756
0.000478062
0.000479491
0.000481019
0.000482624
0.000484291
0.000486004
0.000487752
0.000489526
0.000491319
0.000493126
0.000494938
0.000496746
0.000498536
0.0005003
0.000502044
0.000503794
0.00050558
0.000507413
0.000509244
0.000510867
0.000512637
0.0014711
0.00102816
0.000977031
0.00103048
0.00110432
0.00117771
0.00124492
0.00130434
0.00135574
0.00139976
0.00143701
0.00146794
0.00149284
0.00151201
0.0015258
0.00153467
0.00153919
0.00154001
0.00153782
0.00153327
0.00152696
0.0015194
0.00151103
0.00150221
0.00149321
0.00148424
0.00147544
0.00146684
0.00145837
0.00144989
0.00144142
0.00143319
0.00142662
0.00142143
0.00142657
0.00167353
0.00116377
0.000980924
0.000990273
0.00112301
0.00132014
0.00154668
0.00178411
0.0020202
0.00224698
0.00246005
0.00265756
0.00283946
0.00300646
0.00315958
0.00330008
0.00342924
0.00354827
0.0036582
0.00375993
0.00385424
0.00394183
0.0040233
0.00409926
0.00417023
0.00423662
0.00429869
0.00435654
0.00441034
0.00446067
0.00450887
0.00455682
0.00460633
0.00465687
0.0047085
0.00148738
0.00104334
0.000998856
0.00106647
0.00115758
0.00124936
0.00133435
0.00140986
0.00147513
0.00152965
0.00157376
0.00160766
0.00163161
0.00164614
0.00165218
0.00165092
0.00164371
0.00163187
0.00161663
0.00159905
0.00158001
0.00156015
0.00153998
0.00151999
0.00150048
0.00148152
0.00146291
0.00144419
0.00142498
0.00140565
0.00138814
0.00137608
0.00137399
0.00138191
0.00139637
0.00146305
0.00101455
0.000965988
0.00102816
0.00111358
0.00119999
0.00128006
0.00135115
0.00141249
0.00146369
0.00150505
0.00153674
0.001559
0.00157235
0.00157766
0.00157606
0.00156884
0.00155724
0.00154247
0.00152551
0.00150717
0.00148802
0.00146849
0.00144902
0.00142999
0.00141174
0.00139451
0.00137828
0.00136252
0.00134609
0.00132748
0.00130578
0.00128261
0.00126224
0.00125573
0.0016689
0.00114589
0.0008917
0.000750675
0.000664331
0.000607314
0.000567465
0.00053846
0.000516873
0.000500898
0.000489783
0.000483585
0.000483073
0.000489683
0.000505418
0.000532688
0.000574103
0.000632374
0.000710326
0.000810774
0.00093603
0.0010872
0.00126376
0.00146351
0.00168302
0.00191816
0.00216474
0.00241897
0.00267775
0.00293884
0.00320077
0.00346288
0.00372499
0.00398694
0.0042465
0.00145276
0.00103109
0.00099028
0.00104847
0.00112359
0.0011963
0.00126097
0.00131725
0.00136543
0.00140646
0.00144116
0.00147002
0.00149329
0.0015112
0.00152406
0.0015323
0.00153644
0.00153705
0.00153477
0.00153019
0.00152387
0.00151632
0.00150793
0.00149905
0.00148995
0.00148086
0.00147196
0.00146337
0.00145514
0.00144718
0.0014393
0.00143111
0.00142296
0.00141363
0.00141058
0.00160886
0.00113782
0.00106266
0.00113324
0.00124874
0.00137259
0.00149137
0.00160011
0.0016974
0.00178364
0.00185985
0.00192727
0.00198706
0.00204022
0.00208762
0.00212989
0.00216754
0.00220098
0.00223056
0.00225661
0.00227945
0.00229943
0.00231685
0.00233206
0.00234538
0.00235714
0.0023676
0.00237695
0.00238527
0.0023926
0.00239911
0.00240517
0.00241201
0.00241984
0.00243529
0.00103234
0.000666257
0.000613269
0.000623311
0.000647848
0.000675302
0.000701941
0.000726405
0.000748369
0.000767918
0.000785384
0.000801078
0.00081526
0.000828213
0.00084019
0.0008514
0.000862012
0.00087215
0.000881909
0.000891355
0.000900532
0.000909468
0.00091819
0.000926719
0.000935061
0.000943187
0.000951021
0.000958467
0.000965496
0.000972253
0.000979128
0.000986591
0.000995043
0.00100381
0.00101276
0.000919869
0.000721889
0.000616429
0.000575549
0.00055726
0.000547724
0.000542585
0.00053988
0.000538569
0.000538071
0.000538024
0.000538175
0.000538335
0.00053836
0.000538152
0.000537651
0.000536834
0.000535708
0.000534297
0.000532641
0.000530785
0.000528776
0.000526658
0.00052447
0.000522248
0.00052002
0.000517811
0.000515635
0.000513501
0.000511408
0.000509349
0.000507351
0.000505366
0.000503786
0.000501537
0.000988549
0.000773219
0.000657517
0.000613445
0.000594033
0.000584049
0.000578779
0.000576098
0.00057489
0.000574541
0.000574667
0.000574992
0.000575308
0.00057546
0.000575337
0.000574877
0.000574055
0.000572882
0.000571389
0.000569623
0.000567638
0.000565488
0.000563221
0.000560883
0.000558512
0.000556135
0.000553774
0.000551442
0.000549149
0.00054691
0.000544745
0.000542724
0.000540815
0.000539402
0.000537196
0.00160151
0.00115473
0.00110798
0.00119066
0.00130745
0.00142664
0.00153821
0.00163921
0.00172925
0.00180899
0.00187938
0.00194154
0.0019967
0.00204595
0.00209015
0.00212998
0.00216603
0.00219873
0.00222844
0.00225546
0.00228003
0.00230239
0.00232276
0.0023414
0.00235855
0.00237443
0.00238916
0.00240266
0.00241485
0.0024258
0.00243614
0.00244685
0.00245946
0.00247271
0.00249292
0.00167094
0.00115055
0.000918651
0.000839204
0.000875488
0.00100955
0.00121286
0.00145692
0.00172157
0.0019922
0.00225842
0.00251381
0.00275511
0.00298108
0.00319165
0.00338743
0.00356936
0.00373849
0.0038959
0.00404259
0.00417954
0.00430762
0.00442771
0.00454059
0.00464698
0.00474738
0.00484204
0.00493106
0.00501476
0.00509417
0.00517132
0.00524854
0.00532709
0.00540444
0.00547709
0.00167227
0.00115833
0.000962911
0.000954351
0.00107384
0.00126567
0.00149139
0.00173101
0.0019719
0.00220546
0.00242667
0.00263306
0.00282397
0.00299979
0.0031614
0.00331004
0.00344696
0.00357339
0.00369044
0.00379906
0.00390012
0.00399438
0.00408253
0.00416522
0.00424299
0.00431622
0.00438505
0.00444951
0.00450981
0.00456683
0.00462231
0.00467836
0.00473627
0.00479406
0.00484911
0.00164735
0.00116401
0.001075
0.00115841
0.00130483
0.00146878
0.00163051
0.00178139
0.00191835
0.00204105
0.00215036
0.00224759
0.00233424
0.00241178
0.00248156
0.0025448
0.00260249
0.0026555
0.00270452
0.00275013
0.00279279
0.00283289
0.00287078
0.00290675
0.00294101
0.00297365
0.00300458
0.00303364
0.00306085
0.00308676
0.00311267
0.00314014
0.00317005
0.00320068
0.00322967
0.00167145
0.00115484
0.000927176
0.000855485
0.000903031
0.00104712
0.00125542
0.00150022
0.00176305
0.00203033
0.00229222
0.00254246
0.00277768
0.0029963
0.00319773
0.00338193
0.0035491
0.00369969
0.00383442
0.00395427
0.00406039
0.00415416
0.00423699
0.00431035
0.00437564
0.00443419
0.00448712
0.00453538
0.00457964
0.00462042
0.00465834
0.00469429
0.00473029
0.00476758
0.00481399
0.00165963
0.00118691
0.00109935
0.00119221
0.00135431
0.001538
0.0017217
0.00189422
0.00204999
0.00218586
0.00229972
0.00239141
0.00246146
0.00251119
0.0025427
0.00255862
0.0025618
0.00255503
0.00254083
0.00252134
0.00249823
0.00247284
0.00244616
0.002419
0.00239203
0.00236584
0.00234094
0.00231739
0.00229465
0.00227126
0.00224522
0.00221503
0.00218222
0.00215233
0.00213902
0.00165939
0.00118938
0.00110611
0.0011981
0.00135673
0.00153734
0.00171869
0.00188932
0.0020434
0.00217798
0.00229106
0.00238222
0.00245189
0.00250135
0.00253267
0.00254843
0.00255147
0.00254456
0.00253021
0.00251056
0.00248736
0.00246194
0.00243533
0.00240842
0.0023818
0.00235571
0.00232999
0.00230413
0.00227764
0.00225101
0.00222669
0.0022095
0.00220551
0.0022157
0.00223447
0.00166896
0.00114644
0.000892381
0.000751423
0.000665253
0.000608929
0.000570961
0.000546234
0.000533383
0.000533827
0.000551225
0.000590644
0.000657162
0.000754579
0.00088519
0.00104997
0.00124798
0.00147559
0.00172677
0.00199425
0.00227083
0.00255036
0.00282814
0.00310096
0.0033669
0.00362485
0.00387426
0.00411491
0.00434676
0.00457
0.00478529
0.00499377
0.00519684
0.00539515
0.00558777
0.00166975
0.0011476
0.000899746
0.000779063
0.000740189
0.000774129
0.000878509
0.00104263
0.00125135
0.00149163
0.00175194
0.00202183
0.00229285
0.0025589
0.00281601
0.0030618
0.00329508
0.00351551
0.00372316
0.00391857
0.0041024
0.00427537
0.00443827
0.0045919
0.00473701
0.0048742
0.00500387
0.00512621
0.00524161
0.00535109
0.00545657
0.00556042
0.00566418
0.00576599
0.0058627
0.00167618
0.0011858
0.00104959
0.00112565
0.00131658
0.00154973
0.00179077
0.00202407
0.00224199
0.00244097
0.00261969
0.00277783
0.00291555
0.00303339
0.0031322
0.00321321
0.00327797
0.00332833
0.00336632
0.00339398
0.00341326
0.00342596
0.00343363
0.00343759
0.00343892
0.00343853
0.00343713
0.00343527
0.00343334
0.00343145
0.00342954
0.00342724
0.00342488
0.00342128
0.00342491
0.00166304
0.00119596
0.00111687
0.00121127
0.0013704
0.00154661
0.0017185
0.00187615
0.00201625
0.0021387
0.00224414
0.00233335
0.00240706
0.00246599
0.00251115
0.00254378
0.00256541
0.00257774
0.00258254
0.00258144
0.00257593
0.00256727
0.0025565
0.00254446
0.0025318
0.002519
0.00250637
0.00249401
0.00248181
0.00246955
0.00245723
0.00244539
0.00243613
0.00243074
0.00243713
0.00132025
0.000874283
0.000808884
0.000837201
0.000886158
0.000938552
0.000988767
0.00103465
0.00107554
0.00111151
0.00114302
0.00117055
0.00119456
0.00121542
0.00123343
0.00124878
0.00126167
0.00127227
0.00128079
0.00128746
0.0012925
0.00129617
0.0012987
0.00130031
0.00130122
0.00130162
0.00130164
0.00130135
0.00130075
0.00129979
0.00129855
0.00129724
0.00129702
0.00129764
0.00130663
0.00167397
0.001189
0.00108151
0.00117307
0.00135001
0.00155422
0.001762
0.0019621
0.00214898
0.00232032
0.00247554
0.00261575
0.00274226
0.00285643
0.00295947
0.00305253
0.00313661
0.00321257
0.00328114
0.00334303
0.00339885
0.0034492
0.00349467
0.00353585
0.00357336
0.00360771
0.00363926
0.00366812
0.0036943
0.00371806
0.00374032
0.00376265
0.00378695
0.00381272
0.00384218
0.00166913
0.00114759
0.000894153
0.00075554
0.000675893
0.000634512
0.000626106
0.000652713
0.000718316
0.000824959
0.000972216
0.00115835
0.00137968
0.00162954
0.00189896
0.0021786
0.00246042
0.00273847
0.00300888
0.00326936
0.00351871
0.00375637
0.00398226
0.00419654
0.0043996
0.00459194
0.00477411
0.00494655
0.00510983
0.00526472
0.00541242
0.00555467
0.00569338
0.00582932
0.00596233
0.00166972
0.0011495
0.000900595
0.000775272
0.000726292
0.00074329
0.000825973
0.000968908
0.00116064
0.00138951
0.00164445
0.00191437
0.0021894
0.00246185
0.00272623
0.00297897
0.0032178
0.00344138
0.00364915
0.00384099
0.00401738
0.0041792
0.00432752
0.00446354
0.00458862
0.00470404
0.00481101
0.00491056
0.00500351
0.00509063
0.00517284
0.00525139
0.0053283
0.005405
0.00548599
0.00165828
0.0011984
0.00113065
0.00122993
0.00138698
0.00155515
0.00171528
0.00186024
0.00198819
0.00209947
0.00219493
0.00227538
0.0023415
0.00239409
0.00243413
0.00246283
0.00248161
0.00249199
0.00249552
0.00249369
0.00248784
0.00247909
0.0024684
0.0024565
0.00244399
0.00243134
0.00241893
0.00240703
0.00239573
0.0023849
0.00237419
0.00236296
0.00235134
0.00233836
0.00233193
0.00162534
0.00115505
0.00108606
0.00117284
0.00130883
0.00145282
0.0015895
0.00171371
0.00182454
0.00192261
0.00200928
0.00208572
0.00215357
0.00221418
0.00226869
0.00231811
0.00236327
0.00240482
0.00244331
0.00247917
0.00251271
0.00254421
0.00257389
0.00260197
0.00262859
0.00265386
0.00267773
0.00270008
0.00272085
0.00274032
0.00275932
0.00277913
0.00280105
0.00282447
0.00284995
0.00161709
0.00116016
0.00109787
0.00117584
0.00129384
0.00141691
0.00153183
0.00163472
0.00172456
0.00180222
0.00186869
0.00192482
0.0019712
0.00200841
0.00203706
0.0020579
0.00207178
0.00207971
0.00208272
0.00208183
0.00207794
0.00207188
0.00206432
0.00205583
0.00204685
0.00203773
0.00202868
0.0020198
0.00201099
0.00200211
0.00199314
0.00198436
0.00197755
0.00197293
0.00198047
0.00141208
0.000935316
0.000860904
0.000901011
0.000968313
0.00103801
0.00110307
0.00116145
0.00121295
0.00125821
0.00129807
0.00133337
0.00136485
0.00139317
0.00141887
0.00144246
0.00146431
0.00148476
0.00150405
0.00152239
0.00153994
0.00155684
0.00157322
0.00158923
0.00160495
0.00162033
0.00163516
0.00164922
0.00166252
0.00167563
0.00168971
0.00170586
0.00172403
0.00174184
0.00175494
0.00166925
0.00115112
0.000898031
0.000757487
0.000671903
0.000617154
0.000582826
0.000565332
0.000565265
0.000586022
0.000632464
0.000709383
0.000820607
0.000969024
0.00115612
0.0013805
0.00163701
0.00191732
0.0022116
0.00251021
0.00280499
0.0030898
0.00336063
0.00361524
0.00385282
0.00407354
0.00427823
0.00446808
0.00464439
0.00480845
0.00496151
0.00510482
0.00524013
0.00536884
0.00549555
0.00167382
0.00116299
0.000981673
0.000998136
0.0011426
0.00134961
0.0015813
0.0018202
0.00205578
0.00228128
0.00249295
0.00268923
0.00286995
0.00303574
0.00318768
0.00332696
0.00345487
0.00357264
0.0036814
0.00378217
0.00387589
0.00396338
0.00404546
0.00412291
0.00419637
0.0042662
0.00433231
0.00439444
0.00445268
0.00450833
0.00456402
0.00462253
0.00468441
0.00474464
0.00479687
0.000952107
0.000733326
0.000622305
0.000580882
0.000562599
0.00055322
0.00054831
0.000545891
0.000544924
0.000544805
0.00054519
0.000545857
0.000546646
0.000547429
0.000548108
0.000548607
0.000548877
0.000548895
0.000548658
0.000548179
0.000547485
0.000546606
0.000545578
0.000544434
0.000543207
0.000541923
0.000540604
0.000539267
0.000537925
0.000536592
0.000535285
0.000534062
0.000532904
0.000532113
0.000530668
0.00167069
0.00114996
0.000914495
0.000826202
0.000847685
0.000964315
0.00115179
0.00138294
0.00163834
0.00190402
0.00216959
0.00242796
0.00267491
0.00290828
0.00312728
0.00333206
0.0035232
0.00370152
0.00386789
0.0040232
0.00416829
0.00430397
0.00443106
0.0045503
0.00466241
0.00476792
0.00486716
0.0049603
0.00504767
0.00513015
0.00520955
0.00528811
0.0053675
0.00544617
0.00552247
0.00166892
0.00114613
0.000892142
0.000751205
0.000664888
0.000607859
0.000567932
0.000538715
0.000516647
0.000499686
0.000486697
0.000477154
0.000471007
0.000468632
0.000470819
0.000478771
0.000494087
0.00051873
0.000555024
0.00060571
0.00067403
0.000763663
0.000878363
0.00102137
0.00119481
0.0013993
0.00163372
0.00189533
0.00218004
0.00248291
0.00279871
0.00312248
0.00344995
0.00377754
0.00410032
0.00163323
0.00115404
0.00107278
0.00115305
0.00128924
0.00143888
0.00158449
0.00171906
0.00184039
0.00194862
0.00204483
0.00213043
0.00220684
0.00227534
0.0023371
0.00239314
0.00244434
0.00249144
0.00253508
0.00257578
0.00261399
0.00265008
0.00268442
0.00271735
0.00274914
0.00277981
0.00280914
0.00283677
0.00286275
0.00288797
0.00291436
0.00294386
0.00297663
0.00300888
0.00303414
0.00167216
0.00115502
0.000935645
0.000881923
0.000952654
0.00111407
0.00132901
0.00157225
0.00182767
0.00208378
0.00233258
0.00256924
0.00279156
0.00299891
0.00319145
0.00336988
0.00353512
0.00368814
0.00382986
0.00396113
0.00408273
0.0041954
0.00429983
0.00439673
0.00448677
0.00457056
0.00464856
0.00472108
0.00478842
0.0048512
0.00491066
0.00496864
0.00502728
0.00508675
0.00514886
0.000899348
0.00064097
0.000578386
0.000559797
0.000555861
0.000558361
0.000563504
0.000569644
0.000575883
0.000581801
0.00058717
0.000591813
0.000595599
0.00059843
0.000600262
0.000601102
0.000601006
0.000600071
0.000598419
0.00059618
0.000593487
0.000590461
0.000587207
0.000583819
0.000580374
0.00057693
0.000573526
0.000570171
0.000566857
0.000563564
0.000560324
0.000557227
0.000554661
0.000552526
0.000552841
0.000945481
0.000734834
0.00062375
0.000579206
0.000559405
0.000549397
0.000544013
0.000541222
0.000539978
0.000539685
0.000540011
0.000540757
0.000541806
0.000543083
0.000544539
0.000546138
0.000547852
0.000549659
0.000551539
0.000553476
0.000555457
0.00055747
0.000559506
0.000561557
0.000563611
0.000565655
0.000567678
0.000569672
0.000571647
0.000573631
0.000575651
0.000577706
0.000579734
0.000581521
0.000583418
0.00167144
0.00115179
0.0009182
0.000833424
0.000861216
0.000986376
0.0011825
0.00142176
0.00168501
0.00195832
0.00223119
0.00249643
0.00274973
0.00298885
0.0032129
0.00342185
0.00361614
0.00379658
0.00396415
0.00411984
0.00426464
0.00439948
0.00452529
0.00464299
0.00475344
0.00485731
0.00495495
0.00504641
0.0051318
0.00521194
0.00528888
0.00536533
0.00544327
0.0055206
0.00559464
0.00166997
0.00115494
0.00090376
0.000769465
0.000700449
0.000682452
0.000717166
0.000809229
0.000956629
0.00115047
0.00137928
0.00163042
0.00189093
0.00214918
0.00239602
0.00262499
0.00283211
0.00301547
0.0031748
0.00331107
0.00342605
0.00352199
0.00360136
0.00366662
0.00372015
0.00376407
0.00380027
0.00383023
0.00385509
0.00387565
0.0038927
0.0039074
0.00392215
0.00393952
0.00396567
0.00166905
0.00114841
0.00089479
0.000754078
0.000668296
0.000612909
0.000576988
0.000556184
0.000550062
0.000560859
0.000592468
0.000649181
0.000734624
0.000851521
0.00100154
0.00118427
0.00139621
0.00163116
0.00188134
0.00213992
0.00240164
0.00266262
0.00292049
0.00317393
0.00342218
0.00366472
0.00390121
0.00413131
0.00435477
0.00457135
0.00478105
0.00498418
0.00518157
0.00537399
0.00556261
0.00155619
0.00106838
0.000985295
0.00104748
0.00115319
0.00126533
0.00137125
0.001467
0.00155199
0.00162692
0.00169291
0.00175109
0.00180259
0.00184849
0.00188981
0.00192734
0.00196174
0.00199356
0.00202324
0.00205113
0.00207747
0.0021025
0.00212639
0.00214933
0.00217141
0.00219264
0.0022129
0.002232
0.00224993
0.00226712
0.00228461
0.00230357
0.00232465
0.00234634
0.00236669
0.0016086
0.00114873
0.00108972
0.00117006
0.00128746
0.00140674
0.00151693
0.00161493
0.00170143
0.00177747
0.00184454
0.00190399
0.00195694
0.00200437
0.00204716
0.00208602
0.00212153
0.00215414
0.00218419
0.00221197
0.00223769
0.00226154
0.00228368
0.00230427
0.00232345
0.00234137
0.00235809
0.00237363
0.00238796
0.00240116
0.00241358
0.00242588
0.00243947
0.00245389
0.00247626
0.00166918
0.00114768
0.000894539
0.000756321
0.000677727
0.000639023
0.000636579
0.000674727
0.000759308
0.000892356
0.00107106
0.00128973
0.00154016
0.00181209
0.00209516
0.00238071
0.00266243
0.00293619
0.00319953
0.00345107
0.0036902
0.00391676
0.00413095
0.00433322
0.00452424
0.00470477
0.00487554
0.0050371
0.00518996
0.00533484
0.00547307
0.00560666
0.00573774
0.00586662
0.00599323
0.00144197
0.00098959
0.000935079
0.000986341
0.00106003
0.00113388
0.0012019
0.00126273
0.0013165
0.0013639
0.00140568
0.00144257
0.00147533
0.00150469
0.0015312
0.00155532
0.00157737
0.00159763
0.00161631
0.00163354