/*--------------------------------*- C++ -*----------------------------------*\
| =========                 |                                                 |
| \\      /  F ield         | OpenFOAM: The Open Source CFD Toolbox           |
|  \\    /   O peration     | Version:  2.4.x                                 |
|   \\  /    A nd           | Web:      www.OpenFOAM.org                      |
|    \\/     M anipulation  |                                                 |
\*---------------------------------------------------------------------------*/
FoamFile
{
    version     2.0;
    format      ascii;
    class       volScalarField;
    location    "9990/coolant";
    object      p_rgh;
}
// * * * * * * * * * * * * * * * * * * * * * * * * * * * * * * * * * * * * * //

dimensions      [1 -1 -2 0 0 0 0];

internalField   nonuniform List<scalar> 
109760
(
5.25234
4.64048
4.31259
4.1047
3.92172
3.75373
3.59938
3.45428
3.31527
3.18069
3.0494
2.92051
2.79332
2.66727
2.54194
2.41701
2.29228
2.16761
2.04291
1.91817
1.79338
1.66857
1.54377
1.41901
1.29435
1.16982
1.04546
0.921301
0.797383
0.673754
0.550405
0.427412
0.304689
0.18242
0.0628351
5.33223
4.59393
4.30285
4.0991
3.91748
3.7512
3.59766
3.45288
3.31404
3.17955
3.04833
2.91949
2.79235
2.66634
2.54106
2.41618
2.29149
2.16686
2.0422
1.91749
1.79274
1.66795
1.54318
1.41845
1.29381
1.1693
1.04496
0.920822
0.796918
0.673302
0.549958
0.426977
0.304213
0.182014
0.0613117
5.54506
4.51758
4.28111
4.0865
3.9074
3.74432
3.59271
3.44905
3.31107
3.17731
3.04671
2.91841
2.79172
2.66608
2.54107
2.41639
2.29182
2.16724
2.0426
1.91787
1.79307
1.66824
1.54341
1.41863
1.29394
1.16938
1.045
0.920833
0.796901
0.673262
0.54988
0.426909
0.303809
0.182294
0.055103
5.38632
4.56447
4.29798
4.09542
3.91498
3.74937
3.59612
3.45151
3.31282
3.17847
3.04736
2.91862
2.79156
2.66563
2.54041
2.41558
2.29094
2.16635
2.04173
1.91706
1.79233
1.66757
1.54282
1.41812
1.2935
1.169
1.04468
0.920558
0.796669
0.673063
0.549725
0.426744
0.304005
0.181786
0.0614349
5.46856
4.54132
4.28886
4.09064
3.91114
3.74671
3.59424
3.45009
3.31174
3.17765
3.04675
2.91819
2.79127
2.66545
2.54031
2.41555
2.29095
2.16639
2.04178
1.91711
1.79238
1.66762
1.54286
1.41815
1.29352
1.16902
1.04468
0.920548
0.79665
0.673037
0.54969
0.426718
0.303852
0.181896
0.058711
5.32086
4.59865
4.30421
4.09958
3.91801
3.75158
3.59794
3.45312
3.31426
3.17976
3.04851
2.91965
2.79248
2.66646
2.54116
2.41627
2.29157
2.16693
2.04227
1.91756
1.7928
1.66802
1.54324
1.41852
1.29388
1.16937
1.04503
0.920891
0.79699
0.673376
0.550036
0.42705
0.30431
0.182042
0.0619904
5.17026
4.68695
4.32404
4.11011
3.92698
3.75686
3.60131
3.45574
3.31643
3.18162
3.05017
2.92119
2.79393
2.66785
2.5425
2.41758
2.29287
2.16822
2.04356
1.91885
1.79409
1.66931
1.54454
1.41982
1.29519
1.17068
1.04634
0.922214
0.79832
0.674709
0.551385
0.42841
0.30577
0.183637
0.0656118
5.3636
4.58262
4.29833
4.09671
3.91561
3.7499
3.5967
3.45209
3.31339
3.17902
3.04789
2.91913
2.79205
2.6661
2.54086
2.41602
2.29135
2.16674
2.0421
1.9174
1.79264
1.66786
1.54309
1.41837
1.29373
1.16922
1.04487
0.920738
0.796835
0.673218
0.549872
0.426896
0.304093
0.182003
0.0601243
5.20015
4.67103
4.31942
4.10817
3.92496
3.75563
3.60056
3.45518
3.31598
3.18126
3.04989
2.92095
2.79373
2.66767
2.54235
2.41744
2.29274
2.1681
2.04343
1.91872
1.79396
1.66917
1.54438
1.41964
1.29498
1.17045
1.04608
0.921915
0.797989
0.674348
0.550994
0.427993
0.305301
0.183078
0.0641475
5.54409
4.51654
4.28111
4.08664
3.9072
3.74431
3.5928
3.44917
3.31122
3.17749
3.04693
2.91868
2.79203
2.66643
2.54143
2.41674
2.29215
2.16755
2.04288
1.91812
1.7933
1.66844
1.54359
1.41879
1.29409
1.16952
1.04512
0.92094
0.796985
0.673333
0.549916
0.426963
0.303788
0.182504
0.0542086
5.54445
4.51587
4.2811
4.08669
3.90728
3.74437
3.59285
3.44921
3.31124
3.1775
3.04693
2.91867
2.79201
2.6664
2.5414
2.4167
2.29211
2.16751
2.04284
1.91808
1.79326
1.6684
1.54355
1.41876
1.29405
1.16949
1.04509
0.920921
0.796984
0.673339
0.549948
0.426976
0.3038
0.182442
0.0541652
5.54076
4.51754
4.28128
4.08682
3.9074
3.74441
3.59283
3.44917
3.31119
3.17744
3.04685
2.91858
2.79192
2.6663
2.5413
2.41662
2.29204
2.16745
2.04278
1.91804
1.79322
1.66837
1.54353
1.41874
1.29404
1.16947
1.04508
0.920904
0.796952
0.673302
0.54989
0.426935
0.303784
0.182449
0.0544927
5.53996
4.51718
4.28123
4.08679
3.90743
3.74443
3.59286
3.4492
3.31122
3.17746
3.04687
2.9186
2.79193
2.6663
2.54129
2.4166
2.29202
2.16742
2.04276
1.91801
1.7932
1.66835
1.54351
1.41871
1.29402
1.16945
1.04506
0.920893
0.796957
0.673315
0.549927
0.426956
0.303807
0.182398
0.054475
5.47527
4.5401
4.28856
4.09045
3.91112
3.74671
3.59424
3.45009
3.31173
3.17764
3.04673
2.91816
2.79123
2.6654
2.54026
2.4155
2.2909
2.16633
2.04172
1.91705
1.79233
1.66757
1.54281
1.4181
1.29347
1.16897
1.04464
0.920512
0.796616
0.673006
0.549662
0.42669
0.303839
0.181858
0.0589398
5.40629
4.57095
4.29259
4.09433
3.91332
3.74847
3.59584
3.45152
3.31301
3.17879
3.04778
2.91913
2.79214
2.66626
2.54107
2.41626
2.29162
2.167
2.04234
1.91763
1.79285
1.66805
1.54325
1.4185
1.29384
1.16931
1.04495
0.920798
0.796881
0.673253
0.549893
0.426923
0.303993
0.182172
0.0575561
5.39405
4.57117
4.2946
4.09486
3.91405
3.74887
3.59599
3.45155
3.31296
3.17868
3.04763
2.91894
2.79192
2.66602
2.54082
2.416
2.29136
2.16676
2.04212
1.91743
1.79267
1.66789
1.54311
1.41838
1.29374
1.16922
1.04487
0.920735
0.796828
0.673207
0.549855
0.426881
0.304019
0.18206
0.0588886
5.39044
4.56749
4.29594
4.09487
3.91435
3.74897
3.59591
3.45139
3.31276
3.17845
3.04738
2.91868
2.79164
2.66573
2.54052
2.41571
2.29107
2.16648
2.04185
1.91717
1.79243
1.66767
1.54291
1.41819
1.29356
1.16906
1.04473
0.920601
0.796706
0.673095
0.549754
0.42678
0.303984
0.18189
0.0601426
5.46494
4.54288
4.28815
4.09083
3.91089
3.74663
3.59429
3.45018
3.31186
3.17781
3.04695
2.91843
2.79156
2.66578
2.54067
2.41592
2.29133
2.16676
2.04214
1.91746
1.7927
1.66792
1.54314
1.4184
1.29374
1.16922
1.04487
0.920719
0.796805
0.673179
0.549817
0.426846
0.303894
0.182109
0.0572998
5.48622
4.53363
4.28848
4.09069
3.9112
3.74675
3.59426
3.45007
3.31169
3.17759
3.04669
2.91813
2.79122
2.6654
2.54027
2.41552
2.29092
2.16636
2.04176
1.91709
1.79236
1.6676
1.54284
1.41812
1.29349
1.16899
1.04465
0.920521
0.796618
0.673004
0.549645
0.426671
0.3038
0.181868
0.0587268
5.33177
4.59233
4.30309
4.09879
3.91739
3.7511
3.59752
3.45272
3.31387
3.17939
3.04817
2.91933
2.79219
2.66618
2.5409
2.41602
2.29134
2.16671
2.04206
1.91736
1.79261
1.66783
1.54307
1.41834
1.29371
1.16921
1.04487
0.920739
0.796843
0.673233
0.549896
0.426914
0.304178
0.18192
0.0618416
5.4541
4.54533
4.29061
4.09145
3.91189
3.74722
3.59459
3.45035
3.31192
3.17778
3.04683
2.91822
2.79127
2.66542
2.54026
2.41548
2.29088
2.16631
2.0417
1.91703
1.79231
1.66755
1.54279
1.41809
1.29346
1.16897
1.04464
0.920514
0.796621
0.673013
0.549671
0.426698
0.303876
0.181841
0.0595332
5.51308
4.53172
4.28363
4.08873
3.90858
3.74548
3.59384
3.45006
3.31197
3.17811
3.04742
2.91906
2.79231
2.66661
2.54154
2.41679
2.29215
2.16752
2.04282
1.91805
1.79322
1.66835
1.5435
1.4187
1.294
1.16944
1.04505
0.92087
0.796916
0.673261
0.54984
0.426888
0.303705
0.182485
0.0538552
5.51317
4.53161
4.28361
4.08872
3.90858
3.74549
3.59384
3.45007
3.31197
3.17811
3.04743
2.91906
2.79231
2.66661
2.54154
2.41679
2.29215
2.16752
2.04282
1.91805
1.79321
1.66835
1.5435
1.4187
1.294
1.16943
1.04504
0.920872
0.796938
0.673299
0.549917
0.426962
0.303778
0.182456
0.0538333
5.56415
4.50914
4.27984
4.08574
3.9066
3.74389
3.59251
3.44897
3.31109
3.17742
3.04691
2.9187
2.79209
2.66651
2.54153
2.41684
2.29226
2.16765
2.04297
1.91821
1.79338
1.66851
1.54365
1.41884
1.29413
1.16956
1.04516
0.920985
0.797045
0.673395
0.549996
0.427011
0.303805
0.182474
0.0539846
5.5671
4.50864
4.27968
4.08561
3.9065
3.74383
3.59246
3.44893
3.31106
3.1774
3.0469
2.91869
2.79209
2.66651
2.54153
2.41685
2.29226
2.16766
2.04298
1.91821
1.79338
1.66851
1.54365
1.41885
1.29414
1.16956
1.04516
0.920978
0.797021
0.673368
0.549951
0.426999
0.303804
0.182543
0.0540259
5.24189
4.64625
4.31388
4.10539
3.92234
3.75411
3.59963
3.45449
3.31545
3.18085
3.04956
2.92068
2.7935
2.66746
2.54214
2.41722
2.2925
2.16783
2.04314
1.9184
1.79361
1.66879
1.54399
1.41923
1.29456
1.17003
1.04566
0.921499
0.797577
0.673943
0.550591
0.427593
0.304874
0.1826
0.0631917
5.5824
4.50668
4.27886
4.0851
3.90623
3.74363
3.59231
3.44883
3.31098
3.17734
3.04685
2.91866
2.79206
2.66648
2.54151
2.41683
2.29225
2.16765
2.04298
1.91821
1.79338
1.66852
1.54366
1.41885
1.29414
1.16956
1.04516
0.920979
0.797022
0.673371
0.549955
0.427004
0.303821
0.182523
0.0541821
5.41602
4.56759
4.29155
4.09376
3.91282
3.74816
3.59566
3.45141
3.31294
3.17876
3.04778
2.91916
2.79219
2.66633
2.54115
2.41634
2.29169
2.16707
2.04241
1.91768
1.7929
1.66808
1.54328
1.41852
1.29386
1.16932
1.04496
0.920805
0.796886
0.673257
0.549893
0.426925
0.303972
0.182202
0.0571367
5.56795
4.51762
4.28108
4.08645
3.90737
3.7443
3.5927
3.44904
3.31105
3.17729
3.04668
2.91838
2.79169
2.66606
2.54105
2.41638
2.29181
2.16725
2.04261
1.91789
1.79309
1.66826
1.54343
1.41865
1.29396
1.16941
1.04502
0.920849
0.796902
0.673256
0.549852
0.426891
0.303799
0.18233
0.0552363
5.45681
4.55053
4.29462
4.09307
3.91343
3.74828
3.5953
3.45087
3.31231
3.17805
3.04702
2.91833
2.79132
2.66542
2.54022
2.41541
2.29079
2.16621
2.0416
1.91694
1.79222
1.66746
1.54272
1.41802
1.2934
1.16891
1.04459
0.920479
0.796594
0.672989
0.549649
0.426663
0.303932
0.181724
0.0614626
5.52429
4.52312
4.28249
4.08746
3.90806
3.74476
3.59302
3.44927
3.31122
3.1774
3.04675
2.91842
2.7917
2.66604
2.54101
2.41632
2.29174
2.16716
2.04252
1.9178
1.79301
1.66818
1.54336
1.41858
1.2939
1.16935
1.04497
0.920803
0.796874
0.673237
0.549858
0.426889
0.303803
0.182274
0.0552542
5.3513
4.5869
4.29987
4.09736
3.91617
3.75027
3.59695
3.4523
3.31356
3.17916
3.048
2.91922
2.79212
2.66615
2.5409
2.41604
2.29137
2.16675
2.0421
1.9174
1.79265
1.66787
1.5431
1.41837
1.29374
1.16923
1.04489
0.920753
0.796852
0.673237
0.549895
0.426917
0.304139
0.181992
0.0607325
5.56055
4.51048
4.28016
4.08594
3.90672
3.74398
3.59257
3.44901
3.31112
3.17744
3.04692
2.9187
2.79208
2.6665
2.54151
2.41683
2.29224
2.16763
2.04295
1.91819
1.79336
1.66849
1.54363
1.41883
1.29412
1.16955
1.04515
0.920974
0.797034
0.673386
0.549988
0.427005
0.3038
0.182473
0.0539678
5.56193
4.51015
4.28006
4.08587
3.90667
3.74395
3.59255
3.449
3.31111
3.17743
3.04691
2.9187
2.79208
2.6665
2.54151
2.41683
2.29224
2.16764
2.04296
1.91819
1.79336
1.66849
1.54363
1.41883
1.29412
1.16955
1.04515
0.920966
0.797009
0.673356
0.549937
0.426986
0.30379
0.182538
0.0540071
5.20731
4.66945
4.31781
4.10767
3.92449
3.7553
3.60036
3.45503
3.31588
3.18118
3.04983
2.92091
2.79371
2.66766
2.54234
2.41744
2.29274
2.1681
2.04343
1.91872
1.79396
1.66917
1.54439
1.41965
1.295
1.17047
1.0461
0.921942
0.798016
0.674373
0.551013
0.428006
0.305287
0.183071
0.0633429
5.52415
4.52263
4.28241
4.08751
3.90804
3.74476
3.59302
3.44926
3.3112
3.17738
3.04672
2.91838
2.79167
2.66601
2.54099
2.4163
2.29173
2.16715
2.04252
1.91779
1.793
1.66818
1.54335
1.41858
1.29389
1.16934
1.04496
0.920794
0.796851
0.673208
0.549806
0.426847
0.303759
0.182292
0.0552499
5.44044
4.55044
4.29049
4.09203
3.91195
3.74733
3.59475
3.45051
3.31209
3.17795
3.04702
2.91844
2.7915
2.66567
2.54053
2.41576
2.29115
2.16658
2.04196
1.91728
1.79254
1.66777
1.543
1.41828
1.29364
1.16913
1.04478
0.920648
0.796743
0.673124
0.549771
0.426799
0.303909
0.182005
0.0583366
5.43738
4.54982
4.29312
4.09254
3.91289
3.74791
3.59506
3.45069
3.31217
3.17796
3.04696
2.9183
2.79131
2.66543
2.54024
2.41545
2.29083
2.16626
2.04165
1.91698
1.79226
1.6675
1.54275
1.41805
1.29343
1.16894
1.04462
0.920502
0.796615
0.67301
0.549672
0.426695
0.303927
0.181779
0.0606653
5.58155
4.51446
4.28026
4.08592
3.90693
3.74404
3.59254
3.44894
3.31101
3.17728
3.04671
2.91845
2.79179
2.66618
2.54118
2.41651
2.29194
2.16736
2.04271
1.91798
1.79317
1.66833
1.54349
1.4187
1.294
1.16944
1.04505
0.920875
0.796925
0.673277
0.549869
0.426911
0.303791
0.182382
0.0548602
5.58158
4.51379
4.28013
4.08578
3.90689
3.74401
3.59253
3.44895
3.31103
3.17732
3.04675
2.91849
2.79184
2.66622
2.54123
2.41655
2.29198
2.16739
2.04274
1.918
1.79319
1.66835
1.54351
1.41872
1.29402
1.16946
1.04507
0.920893
0.796957
0.673315
0.549928
0.426953
0.30383
0.18235
0.0548382
5.43302
4.54883
4.2928
4.09328
3.91298
3.748
3.59518
3.45078
3.31225
3.17804
3.04705
2.91842
2.79145
2.6656
2.54044
2.41566
2.29105
2.16647
2.04186
1.91719
1.79245
1.66769
1.54292
1.41821
1.29357
1.16907
1.04473
0.920599
0.796695
0.673079
0.549721
0.426747
0.303896
0.181925
0.0591691
5.31758
4.60285
4.30398
4.09971
3.91805
3.75159
3.59799
3.4532
3.31436
3.17986
3.04862
2.91976
2.79259
2.66656
2.54125
2.41636
2.29166
2.16701
2.04235
1.91763
1.79287
1.66808
1.5433
1.41857
1.29393
1.16941
1.04506
0.920926
0.797022
0.673405
0.550062
0.427077
0.304326
0.182091
0.0617028
5.34163
4.59061
4.30135
4.09812
3.91683
3.75073
3.59728
3.45255
3.31375
3.1793
3.0481
2.91929
2.79217
2.66618
2.54091
2.41604
2.29136
2.16674
2.04209
1.91739
1.79263
1.66786
1.54309
1.41836
1.29373
1.16923
1.04488
0.920753
0.796854
0.673241
0.549902
0.426922
0.304164
0.181965
0.0612213
5.38632
4.56755
4.29731
4.09533
3.91486
3.74932
3.59613
3.45154
3.31286
3.17852
3.04742
2.91869
2.79163
2.6657
2.54048
2.41566
2.29102
2.16643
2.04181
1.91713
1.7924
1.66764
1.54288
1.41817
1.29355
1.16905
1.04472
0.920602
0.79671
0.673102
0.549765
0.426788
0.304029
0.181848
0.0609665
5.37717
4.58432
4.29536
4.09604
3.9146
3.74929
3.59647
3.45207
3.3135
3.17923
3.04816
2.91946
2.79242
2.66649
2.54126
2.41641
2.29174
2.16711
2.04244
1.91771
1.79293
1.66812
1.54331
1.41856
1.2939
1.16937
1.045
0.920851
0.796933
0.673304
0.549944
0.426971
0.304074
0.182176
0.0581806
5.53028
4.52259
4.28221
4.08759
3.90783
3.74486
3.59327
3.44957
3.31154
3.17775
3.04713
2.91883
2.79215
2.6665
2.54148
2.41676
2.29215
2.16754
2.04286
1.91809
1.79326
1.6684
1.54355
1.41875
1.29405
1.16948
1.04509
0.920909
0.796954
0.6733
0.54988
0.426928
0.303742
0.182508
0.053958
5.53131
4.52212
4.28211
4.08747
3.90775
3.7448
3.59324
3.44955
3.31154
3.17776
3.04715
2.91885
2.79216
2.66652
2.54149
2.41678
2.29217
2.16755
2.04287
1.9181
1.79327
1.66841
1.54356
1.41876
1.29405
1.16949
1.04509
0.92092
0.796983
0.67334
0.549952
0.426987
0.303798
0.182474
0.0539272
5.22733
4.65652
4.31529
4.10631
3.92319
3.75456
3.59989
3.45468
3.3156
3.18097
3.04966
2.92078
2.7936
2.66759
2.54229
2.41741
2.29272
2.16807
2.0434
1.91867
1.79388
1.66906
1.54425
1.41949
1.29482
1.17028
1.04591
0.921743
0.797816
0.674175
0.550817
0.427814
0.305092
0.182847
0.0632156
5.29315
4.61774
4.307
4.10152
3.9193
3.75229
3.59843
3.45354
3.31464
3.1801
3.04883
2.91995
2.79276
2.66672
2.54139
2.41648
2.29177
2.16711
2.04243
1.9177
1.79293
1.66813
1.54334
1.4186
1.29396
1.16944
1.04509
0.920946
0.797041
0.673423
0.550082
0.427098
0.304358
0.182111
0.0619778
5.45706
4.55036
4.28749
4.0917
3.91105
3.74699
3.59479
3.45068
3.31233
3.17826
3.04739
2.91887
2.79201
2.66622
2.5411
2.41634
2.29171
2.16711
2.04245
1.91772
1.79293
1.6681
1.54329
1.41852
1.29384
1.1693
1.04493
0.920772
0.796838
0.673199
0.549806
0.426842
0.303797
0.182236
0.0557833
5.49861
4.53303
4.28412
4.08886
3.90896
3.74546
3.59359
3.44973
3.31159
3.1777
3.04699
2.91861
2.79185
2.66615
2.5411
2.41638
2.29179
2.1672
2.04254
1.91781
1.79302
1.66818
1.54336
1.41858
1.2939
1.16935
1.04497
0.920806
0.796877
0.673241
0.549862
0.426898
0.303808
0.182308
0.055102
5.4885
4.53415
4.28583
4.08917
3.90966
3.74574
3.59361
3.44964
3.31143
3.17746
3.04667
2.9182
2.79137
2.66561
2.54053
2.4158
2.29122
2.16666
2.04205
1.91736
1.79261
1.66782
1.54304
1.4183
1.29365
1.16913
1.04477
0.920626
0.796714
0.67309
0.549729
0.42676
0.303794
0.182033
0.0569766
5.39696
4.56475
4.29554
4.09533
3.91449
3.74917
3.59616
3.45162
3.31297
3.17865
3.04758
2.91888
2.79185
2.66595
2.54075
2.41593
2.2913
2.1667
2.04207
1.91738
1.79263
1.66785
1.54308
1.41835
1.29371
1.1692
1.04485
0.920714
0.796804
0.673183
0.549824
0.426849
0.304001
0.182016
0.0593272
5.27034
4.63453
4.30908
4.10325
3.92051
3.75294
3.59887
3.45393
3.31502
3.18052
3.0493
2.92047
2.79332
2.66729
2.54198
2.41706
2.29233
2.16765
2.04295
1.9182
1.7934
1.66858
1.54377
1.41902
1.29435
1.16982
1.04545
0.921293
0.79737
0.673734
0.550378
0.427383
0.304623
0.182418
0.0617421
5.33222
4.607
4.30078
4.09915
3.91694
3.75071
3.59743
3.45283
3.31414
3.17978
3.04866
2.9199
2.7928
2.66683
2.54155
2.41667
2.29197
2.16732
2.04263
1.91789
1.7931
1.66828
1.54347
1.41871
1.29405
1.16951
1.04514
0.920986
0.797064
0.67343
0.550071
0.42709
0.304244
0.182227
0.0592582
5.49994
4.53244
4.28418
4.08905
3.90905
3.74552
3.59362
3.44972
3.31156
3.17765
3.04694
2.91855
2.79179
2.6661
2.54105
2.41634
2.29175
2.16717
2.04252
1.91779
1.793
1.66817
1.54334
1.41857
1.29389
1.16934
1.04496
0.920792
0.796851
0.673208
0.549806
0.426847
0.303753
0.182305
0.0551328
5.40201
4.5618
4.29549
4.09438
3.91411
3.7488
3.59576
3.45126
3.31264
3.17835
3.04729
2.91859
2.79156
2.66565
2.54045
2.41564
2.29101
2.16642
2.0418
1.91713
1.7924
1.66764
1.54288
1.41817
1.29355
1.16905
1.04472
0.920596
0.796704
0.673094
0.549755
0.426779
0.303999
0.18187
0.0604787
5.50554
4.52963
4.28381
4.08839
3.90873
3.74524
3.59338
3.44954
3.31143
3.17756
3.04686
2.91849
2.79173
2.66605
2.541
2.41629
2.29171
2.16713
2.04249
1.91777
1.79298
1.66816
1.54334
1.41857
1.29389
1.16935
1.04497
0.920807
0.796879
0.673243
0.549866
0.426898
0.303828
0.182275
0.0554732
5.40919
4.55698
4.29635
4.09422
3.91418
3.74879
3.59567
3.45115
3.31253
3.17823
3.04716
2.91845
2.79142
2.6655
2.54029
2.41548
2.29085
2.16627
2.04166
1.91699
1.79227
1.66751
1.54277
1.41806
1.29345
1.16896
1.04463
0.92052
0.796633
0.673028
0.549689
0.426707
0.303975
0.181752
0.061494
5.34284
4.61192
4.2986
4.09919
3.91641
3.75032
3.59724
3.45275
3.31416
3.1799
3.04887
2.9202
2.7932
2.6673
2.54208
2.41722
2.29253
2.16785
2.04313
1.91835
1.79351
1.66865
1.54379
1.419
1.29429
1.16973
1.04533
0.921157
0.797218
0.67357
0.550197
0.427213
0.304288
0.182405
0.0574835
5.33958
4.58816
4.30248
4.09852
3.9172
3.751
3.59745
3.45265
3.3138
3.17931
3.04809
2.91926
2.79213
2.66613
2.54085
2.41599
2.29131
2.16669
2.04204
1.91735
1.7926
1.66783
1.54306
1.41834
1.29371
1.16921
1.04487
0.920743
0.796846
0.673236
0.549897
0.426916
0.304172
0.181926
0.0616735
5.55796
4.52212
4.2822
4.08698
3.90794
3.74464
3.5929
3.44918
3.31114
3.17733
3.04667
2.91832
2.79159
2.66592
2.54089
2.4162
2.29164
2.16707
2.04245
1.91774
1.79296
1.66815
1.54333
1.41856
1.29389
1.16934
1.04496
0.920803
0.796875
0.673239
0.549863
0.42689
0.303839
0.182222
0.0558176
5.31666
4.60495
4.3039
4.0998
3.91803
3.75153
3.59794
3.45316
3.31432
3.17984
3.0486
2.91975
2.79259
2.66656
2.54126
2.41636
2.29166
2.16701
2.04235
1.91763
1.79286
1.66807
1.54329
1.41856
1.29391
1.1694
1.04505
0.92091
0.797005
0.673386
0.550043
0.42706
0.304301
0.182089
0.061456
5.21739
4.66654
4.31597
4.10711
3.92386
3.75488
3.6001
3.45484
3.31574
3.18108
3.04976
2.92086
2.79367
2.66764
2.54233
2.41744
2.29274
2.16809
2.04343
1.91872
1.79396
1.66917
1.54439
1.41965
1.29501
1.17049
1.04613
0.921978
0.798054
0.674408
0.551042
0.428028
0.305277
0.183068
0.0623707
5.38257
4.56665
4.29843
4.09568
3.91522
3.74956
3.59628
3.45164
3.31293
3.17856
3.04744
2.91869
2.79162
2.66568
2.54045
2.41562
2.29098
2.16639
2.04177
1.91709
1.79236
1.66761
1.54285
1.41815
1.29353
1.16904
1.04471
0.920588
0.796699
0.673093
0.549755
0.426774
0.304039
0.181802
0.0615641
5.33892
4.59526
4.30092
4.09831
3.9168
3.75072
3.59737
3.4527
3.31395
3.17954
3.04837
2.91957
2.79245
2.66646
2.54119
2.41632
2.29163
2.16699
2.04233
1.91762
1.79285
1.66806
1.54328
1.41854
1.2939
1.16938
1.04503
0.920888
0.796979
0.673357
0.550009
0.427028
0.304236
0.182106
0.060579
5.5514
4.51675
4.28074
4.0863
3.90735
3.74428
3.59267
3.44902
3.31105
3.17728
3.04667
2.91837
2.79168
2.66603
2.54102
2.41634
2.29177
2.16719
2.04255
1.91783
1.79304
1.66821
1.54338
1.4186
1.29391
1.16936
1.04498
0.920813
0.796882
0.673244
0.549865
0.426894
0.303806
0.182267
0.0552439
5.4559
4.55141
4.2944
4.09288
3.91329
3.74819
3.59524
3.45082
3.31227
3.17802
3.047
2.91832
2.79131
2.66541
2.54021
2.41541
2.29079
2.16621
2.0416
1.91693
1.79221
1.66746
1.54271
1.41801
1.2934
1.16891
1.04459
0.920474
0.796589
0.672984
0.549645
0.426664
0.303932
0.181732
0.0613675
5.3198
4.60234
4.30399
4.10001
3.91804
3.75154
3.59795
3.45315
3.31431
3.17983
3.0486
2.91976
2.79261
2.6666
2.5413
2.41641
2.29171
2.16707
2.0424
1.91768
1.79291
1.66812
1.54333
1.4186
1.29395
1.16943
1.04508
0.920937
0.797026
0.673404
0.550054
0.42707
0.304296
0.182111
0.0612101
5.44095
4.56852
4.28842
4.09308
3.91146
3.74738
3.59535
3.4514
3.31319
3.17921
3.04839
2.91989
2.79299
2.66715
2.54194
2.41708
2.29236
2.16765
2.0429
1.91809
1.79323
1.66835
1.54349
1.41868
1.29398
1.16941
1.04502
0.920852
0.796918
0.673279
0.549904
0.426947
0.303863
0.182348
0.0547326
5.27629
4.63871
4.30747
4.10325
3.92017
3.75263
3.5987
3.45381
3.31494
3.18047
3.04929
2.92049
2.79338
2.6674
2.54213
2.41725
2.29255
2.16789
2.04319
1.91844
1.79364
1.66881
1.54398
1.4192
1.29452
1.16996
1.04557
0.921392
0.797451
0.673799
0.550428
0.427427
0.304614
0.182501
0.0601193
5.40457
4.5601
4.29591
4.09428
3.91412
3.74877
3.59569
3.45118
3.31256
3.17827
3.0472
2.91851
2.79148
2.66557
2.54036
2.41555
2.29092
2.16634
2.04172
1.91705
1.79232
1.66757
1.54282
1.41811
1.29349
1.169
1.04467
0.920555
0.796666
0.673059
0.549722
0.426745
0.303988
0.18181
0.0609499
5.4233
4.55505
4.29295
4.09309
3.913
3.74802
3.5952
3.45083
3.31231
3.17809
3.04709
2.91845
2.79146
2.66559
2.54042
2.41563
2.29101
2.16643
2.04181
1.91714
1.79241
1.66765
1.54289
1.41817
1.29355
1.16905
1.04471
0.920584
0.796688
0.673077
0.549732
0.426759
0.303936
0.181901
0.0595753
5.27938
4.62873
4.30838
4.10307
3.92014
3.75274
3.59879
3.45386
3.31498
3.18048
3.04927
2.92044
2.79329
2.66726
2.54195
2.41703
2.29231
2.16763
2.04293
1.91818
1.79339
1.66856
1.54376
1.419
1.29433
1.16979
1.04542
0.92126
0.797333
0.673696
0.550335
0.427342
0.304565
0.182384
0.0613128
5.44359
4.54497
4.29219
4.09273
3.91265
3.74774
3.59496
3.4506
3.3121
3.1779
3.04693
2.91831
2.79135
2.66549
2.54033
2.41556
2.29095
2.16638
2.04177
1.9171
1.79237
1.66761
1.54285
1.41813
1.2935
1.169
1.04467
0.92054
0.796639
0.673026
0.549671
0.426697
0.303855
0.181868
0.0593166
5.19257
4.67738
4.32004
4.10866
3.92547
3.7559
3.60072
3.45531
3.31609
3.18136
3.04997
2.92103
2.79381
2.66775
2.54242
2.41752
2.29281
2.16817
2.0435
1.91879
1.79403
1.66925
1.54447
1.41974
1.29511
1.1706
1.04626
0.922122
0.798221
0.674599
0.551259
0.428266
0.305572
0.183378
0.0639148
5.46316
4.54247
4.28898
4.0908
3.91116
3.74673
3.59427
3.45012
3.31176
3.17768
3.04678
2.91823
2.79131
2.6655
2.54037
2.41561
2.29102
2.16645
2.04184
1.91717
1.79244
1.66767
1.54291
1.41819
1.29356
1.16905
1.04471
0.92058
0.796678
0.673063
0.549713
0.426741
0.30386
0.181932
0.0584574
5.56044
4.51252
4.28021
4.086
3.90689
3.74405
3.59258
3.449
3.31108
3.17738
3.04683
2.91859
2.79195
2.66635
2.54137
2.41669
2.29212
2.16753
2.04287
1.91812
1.7933
1.66845
1.5436
1.4188
1.2941
1.16953
1.04514
0.920957
0.797002
0.673351
0.549937
0.426982
0.303831
0.182483
0.0545507
5.43203
4.5484
4.29413
4.09316
3.91332
3.74817
3.59522
3.45079
3.31224
3.17799
3.04697
2.9183
2.79129
2.6654
2.54021
2.41541
2.29079
2.16621
2.0416
1.91694
1.79221
1.66746
1.54271
1.41801
1.29339
1.1689
1.04458
0.920461
0.796574
0.672969
0.549626
0.426643
0.303883
0.18173
0.0608782
5.58019
4.50856
4.27909
4.0853
3.90644
3.74376
3.59239
3.44887
3.311
3.17733
3.04681
2.9186
2.79198
2.6664
2.54142
2.41674
2.29217
2.16757
2.04291
1.91815
1.79333
1.66847
1.54362
1.41882
1.29411
1.16954
1.04514
0.920958
0.797002
0.673351
0.549937
0.426984
0.303822
0.182489
0.0544026
5.47964
4.54271
4.28548
4.09004
3.90971
3.74605
3.5941
3.45017
3.31196
3.17801
3.04724
2.91881
2.79201
2.66628
2.54119
2.41644
2.29183
2.16722
2.04255
1.91781
1.79301
1.66818
1.54335
1.41857
1.29389
1.16934
1.04496
0.920798
0.79687
0.673234
0.549858
0.426898
0.303811
0.182317
0.0550267
5.40754
4.57466
4.29232
4.09505
3.91344
3.74861
3.59609
3.45183
3.31336
3.17917
3.04819
2.91955
2.79257
2.66668
2.54148
2.41664
2.29196
2.16731
2.04262
1.91787
1.79306
1.66822
1.5434
1.41862
1.29395
1.1694
1.04503
0.920871
0.796937
0.673299
0.549912
0.426941
0.303952
0.18225
0.0566666
5.34319
4.61052
4.2986
4.09953
3.91657
3.75042
3.59732
3.45279
3.31417
3.17989
3.04886
2.92019
2.79318
2.66728
2.54207
2.41722
2.29253
2.16786
2.04315
1.91837
1.79353
1.66866
1.54381
1.41901
1.29431
1.16974
1.04534
0.921165
0.797217
0.673565
0.550175
0.427188
0.304252
0.182383
0.057476
5.39364
4.56182
4.29755
4.09525
3.91482
3.74925
3.59604
3.45144
3.31276
3.17842
3.04732
2.9186
2.79154
2.66562
2.5404
2.41558
2.29095
2.16636
2.04175
1.91707
1.79234
1.66759
1.54284
1.41813
1.29351
1.16902
1.04469
0.920571
0.796681
0.673074
0.549734
0.426752
0.304005
0.181805
0.0612796
5.41519
4.55423
4.29526
4.09421
3.9139
3.74859
3.59556
3.45106
3.31246
3.17819
3.04715
2.91847
2.79146
2.66557
2.54038
2.41558
2.29096
2.16638
2.04177
1.9171
1.79237
1.66761
1.54286
1.41815
1.29353
1.16903
1.0447
0.920579
0.796684
0.673075
0.549728
0.426749
0.303962
0.181852
0.0604361
5.40179
4.56623
4.29425
4.09499
3.91398
3.74884
3.59598
3.45153
3.31294
3.17866
3.04762
2.91895
2.79194
2.66606
2.54087
2.41606
2.29142
2.16682
2.04218
1.91748
1.79272
1.66792
1.54314
1.4184
1.29375
1.16923
1.04488
0.920732
0.796815
0.673189
0.549821
0.426849
0.303955
0.182068
0.0584177
5.41076
4.56068
4.29371
4.09379
3.91343
3.74835
3.59548
3.45107
3.31252
3.17827
3.04725
2.91859
2.7916
2.66572
2.54053
2.41573
2.29111
2.16652
2.04191
1.91722
1.79249
1.66772
1.54296
1.41824
1.29361
1.1691
1.04477
0.920635
0.796735
0.673121
0.549775
0.426801
0.303968
0.181954
0.0594123
5.16091
4.68991
4.32614
4.11087
3.92763
3.7573
3.60159
3.45594
3.31658
3.18174
3.05027
2.92127
2.794
2.6679
2.54255
2.41762
2.29291
2.16826
2.04359
1.91888
1.79413
1.66935
1.54458
1.41986
1.29523
1.17073
1.04639
0.922265
0.798371
0.674759
0.551433
0.428454
0.305829
0.18371
0.0665658
5.57177
4.5074
4.27926
4.08534
3.90635
3.74371
3.59237
3.44886
3.311
3.17735
3.04685
2.91865
2.79205
2.66648
2.5415
2.41682
2.29224
2.16764
2.04296
1.9182
1.79336
1.6685
1.54364
1.41883
1.29412
1.16955
1.04515
0.920965
0.797009
0.673358
0.549942
0.426991
0.3038
0.182526
0.0540736
5.57432
4.50615
4.27898
4.08519
3.90628
3.74367
3.59235
3.44887
3.31102
3.17738
3.04689
2.9187
2.7921
2.66652
2.54155
2.41686
2.29228
2.16768
2.043
1.91823
1.7934
1.66853
1.54367
1.41886
1.29415
1.16957
1.04517
0.920997
0.797055
0.673404
0.550003
0.427013
0.303811
0.182464
0.0540418
5.38662
4.57681
4.29492
4.09538
3.9143
3.74908
3.59624
3.45181
3.31323
3.17895
3.04789
2.91919
2.79216
2.66625
2.54103
2.4162
2.29155
2.16693
2.04228
1.91757
1.7928
1.668
1.54321
1.41847
1.29382
1.1693
1.04494
0.920794
0.796881
0.673256
0.5499
0.426926
0.304046
0.182118
0.058551
5.4603
4.54363
4.28983
4.09112
3.91156
3.747
3.59444
3.45023
3.31184
3.17772
3.04679
2.91821
2.79127
2.66543
2.54028
2.41551
2.29091
2.16634
2.04173
1.91706
1.79234
1.66758
1.54282
1.41811
1.29348
1.16899
1.04465
0.920525
0.79663
0.673019
0.549675
0.426703
0.30386
0.181864
0.0591313
5.22568
4.65754
4.31595
4.10681
3.9234
3.75469
3.6
3.45475
3.31565
3.181
3.04968
2.92078
2.79359
2.66756
2.54226
2.41736
2.29267
2.16802
2.04335
1.91862
1.79384
1.66902
1.54421
1.41945
1.29478
1.17023
1.04586
0.92169
0.797758
0.674116
0.550754
0.427751
0.305024
0.182782
0.0629817
5.3764
4.57805
4.29667
4.096
3.91501
3.74955
3.5965
3.45196
3.3133
3.17896
3.04786
2.91912
2.79206
2.66613
2.5409
2.41607
2.29141
2.1668
2.04216
1.91746
1.7927
1.66792
1.54314
1.41841
1.29377
1.16925
1.04491
0.920767
0.79686
0.67324
0.549889
0.426913
0.304081
0.182054
0.0595216
5.36807
4.57299
4.29974
4.09667
3.91591
3.75007
3.5967
3.45199
3.31323
3.17881
3.04766
2.91888
2.79179
2.66583
2.54059
2.41575
2.29109
2.16649
2.04186
1.91718
1.79245
1.66768
1.54293
1.41822
1.29359
1.1691
1.04477
0.920644
0.796752
0.673144
0.549806
0.426824
0.304084
0.181848
0.0615509
5.30153
4.62445
4.30441
4.10193
3.91885
3.75185
3.59822
3.45344
3.31466
3.18026
3.04912
2.92038
2.7933
2.66735
2.54209
2.41721
2.2925
2.16783
2.04313
1.91837
1.79356
1.66871
1.54388
1.4191
1.29441
1.16986
1.04547
0.921295
0.797353
0.673703
0.550324
0.427329
0.30448
0.182434
0.0594195
5.45953
4.54583
4.28844
4.09118
3.91105
3.74678
3.59444
3.45031
3.31198
3.17792
3.04706
2.91854
2.79166
2.66588
2.54077
2.41602
2.29143
2.16685
2.04222
1.91753
1.79277
1.66798
1.54319
1.41844
1.29379
1.16926
1.0449
0.920753
0.796837
0.673209
0.549845
0.426875
0.303908
0.182154
0.0570584
5.4513
4.54732
4.29196
4.09195
3.91243
3.7476
3.59484
3.45053
3.31205
3.17787
3.04689
2.91825
2.79127
2.6654
2.54023
2.41544
2.29082
2.16625
2.04164
1.91697
1.79225
1.6675
1.54275
1.41804
1.29342
1.16893
1.04461
0.920489
0.796602
0.672996
0.549658
0.426683
0.3039
0.181783
0.0603284
5.24481
4.65452
4.31177
4.10541
3.92213
3.7538
3.59943
3.45435
3.31536
3.18079
3.04953
2.92068
2.79354
2.66753
2.54224
2.41736
2.29267
2.16803
2.04336
1.91864
1.79387
1.66907
1.54428
1.41953
1.29486
1.17032
1.04594
0.921759
0.797815
0.674154
0.550775
0.427759
0.304968
0.182795
0.0610022
5.25355
4.6428
4.31164
4.10448
3.92158
3.75359
3.59929
3.45424
3.31526
3.1807
3.04943
2.92057
2.79339
2.66735
2.54202
2.41709
2.29234
2.16765
2.04294
1.91819
1.79338
1.66856
1.54376
1.419
1.29434
1.16981
1.04544
0.921286
0.797368
0.673737
0.550388
0.427395
0.30466
0.182431
0.0623259
5.29377
4.61968
4.30641
4.10148
3.91918
3.75217
3.59836
3.4535
3.31464
3.18014
3.04891
2.92005
2.79288
2.66684
2.54153
2.41661
2.2919
2.16723
2.04255
1.91782
1.79304
1.66824
1.54344
1.4187
1.29405
1.16953
1.04517
0.921022
0.79711
0.673486
0.550139
0.427153
0.304396
0.18219
0.0615534
5.41126
4.55836
4.2943
4.09363
3.91349
3.74834
3.59541
3.45097
3.31241
3.17816
3.04713
2.91846
2.79145
2.66556
2.54037
2.41557
2.29095
2.16636
2.04175
1.91707
1.79234
1.66758
1.54283
1.41812
1.2935
1.169
1.04467
0.920549
0.796656
0.673048
0.549709
0.426735
0.303944
0.181844
0.0601822
5.53499
4.52225
4.28229
4.08717
3.90811
3.74475
3.59297
3.44922
3.31117