/*--------------------------------*- C++ -*----------------------------------*\
| =========                 |                                                 |
| \\      /  F ield         | OpenFOAM: The Open Source CFD Toolbox           |
|  \\    /   O peration     | Version:  2.4.x                                 |
|   \\  /    A nd           | Web:      www.OpenFOAM.org                      |
|    \\/     M anipulation  |                                                 |
\*---------------------------------------------------------------------------*/
FoamFile
{
    version     2.0;
    format      ascii;
    class       surfaceScalarField;
    location    "9990/coolant";
    object      phi;
}
// * * * * * * * * * * * * * * * * * * * * * * * * * * * * * * * * * * * * * //

dimensions      [1 0 -1 0 0 0 0];

internalField   nonuniform List<scalar> 
315644
(
6.31237e-05
1.01351e-05
-1.73788e-05
2.12953e-05
-1.74779e-05
6.47647e-05
4.87589e-06
-7.93482e-06
9.80222e-06
-8.38423e-06
6.59692e-05
3.73338e-06
-6.01263e-06
7.45892e-06
-6.38422e-06
6.68888e-05
3.15591e-06
-4.86536e-06
6.09458e-06
-5.30465e-06
6.7636e-05
2.64317e-06
-3.96844e-06
4.98939e-06
-4.4114e-06
6.82551e-05
2.34153e-06
-3.43187e-06
4.34485e-06
-3.87362e-06
6.8761e-05
2.148e-06
-3.06587e-06
3.92398e-06
-3.51195e-06
6.91567e-05
1.99394e-06
-2.76537e-06
3.59218e-06
-3.21651e-06
6.94427e-05
1.86228e-06
-2.50145e-06
3.3115e-06
-2.95834e-06
6.96221e-05
1.74445e-06
-2.26086e-06
3.06107e-06
-2.72397e-06
6.97037e-05
1.63397e-06
-2.03619e-06
2.82575e-06
-2.50519e-06
6.97035e-05
1.52775e-06
-1.82553e-06
2.59767e-06
-2.29962e-06
6.96419e-05
1.4253e-06
-1.62971e-06
2.37418e-06
-2.10816e-06
6.9541e-05
1.3275e-06
-1.45009e-06
2.15596e-06
-1.93254e-06
6.94213e-05
1.23567e-06
-1.2877e-06
1.94567e-06
-1.77396e-06
6.92993e-05
1.15081e-06
-1.14267e-06
1.74637e-06
-1.63251e-06
6.9187e-05
1.0734e-06
-1.01431e-06
1.56061e-06
-1.50737e-06
6.90922e-05
1.00337e-06
-9.01367e-07
1.38994e-06
-1.39715e-06
6.90195e-05
9.40201e-07
-8.02251e-07
1.23474e-06
-1.30001e-06
6.89711e-05
8.83235e-07
-7.15326e-07
1.09467e-06
-1.21413e-06
6.89473e-05
8.31798e-07
-6.39024e-07
9.68842e-07
-1.13782e-06
6.89474e-05
7.85276e-07
-5.71903e-07
8.56106e-07
-1.06961e-06
6.897e-05
7.43082e-07
-5.12615e-07
7.55082e-07
-1.00818e-06
6.90133e-05
7.04619e-07
-4.59919e-07
6.64315e-07
-9.52306e-07
6.90753e-05
6.69273e-07
-4.12672e-07
5.82342e-07
-9.00907e-07
6.91539e-05
6.36347e-07
-3.69891e-07
5.07894e-07
-8.52934e-07
6.9247e-05
6.05128e-07
-3.30679e-07
4.39811e-07
-8.07385e-07
6.93526e-05
5.75193e-07
-2.94544e-07
3.77481e-07
-7.63699e-07
6.94684e-05
5.45931e-07
-2.61041e-07
3.20426e-07
-7.21158e-07
6.95925e-05
5.17775e-07
-2.30212e-07
2.68634e-07
-6.80294e-07
6.9723e-05
4.89864e-07
-2.01082e-07
2.20747e-07
-6.40028e-07
6.9859e-05
4.63526e-07
-1.73881e-07
1.76596e-07
-6.02166e-07
6.99971e-05
4.31212e-07
-1.40985e-07
1.2661e-07
-5.54957e-07
7.01448e-05
4.00521e-07
-1.04189e-07
6.83146e-08
-5.12358e-07
1.94223e-07
6.71559e-08
-1.34586e-07
-2.11956e-07
4.13527e-05
9.661e-06
-9.79709e-06
-2.17591e-05
2.01976e-05
4.18118e-05
3.01277e-06
-3.18638e-06
-9.43016e-06
9.14473e-06
4.18383e-05
2.15019e-06
-2.1994e-06
-6.74042e-06
6.76306e-06
4.15599e-05
1.39721e-06
-1.39218e-06
-4.98202e-06
5.25545e-06
4.1119e-05
9.43701e-07
-9.05212e-07
-3.71951e-06
4.12193e-06
4.05903e-05
6.6869e-07
-6.08448e-07
-2.892e-06
3.36037e-06
4.00395e-05
4.6025e-07
-3.95993e-07
-2.31404e-06
2.80061e-06
3.95142e-05
2.88364e-07
-2.3334e-07
-1.88536e-06
2.35567e-06
3.90419e-05
1.45316e-07
-1.07198e-07
-1.56669e-06
2.00083e-06
3.86348e-05
2.51847e-08
-7.22278e-09
-1.33141e-06
1.72057e-06
3.8295e-05
-7.69111e-08
7.43757e-08
-1.15852e-06
1.50088e-06
3.80191e-05
-1.64457e-07
1.42691e-07
-1.03271e-06
1.33038e-06
3.7801e-05
-2.40631e-07
2.01601e-07
-9.42473e-07
1.19955e-06
3.76341e-05
-3.07843e-07
2.53414e-07
-8.78925e-07
1.1003e-06
3.75116e-05
-3.67228e-07
2.99095e-07
-8.34935e-07
1.02557e-06
3.74274e-05
-4.19303e-07
3.39134e-07
-8.04747e-07
9.69116e-07
3.7376e-05
-4.64583e-07
3.73898e-07
-7.83966e-07
9.2606e-07
3.73524e-05
-5.03394e-07
4.03674e-07
-7.69088e-07
8.92378e-07
3.73523e-05
-5.36026e-07
4.28658e-07
-7.5748e-07
8.64944e-07
3.73719e-05
-5.62814e-07
4.49069e-07
-7.47232e-07
8.41404e-07
3.74078e-05
-5.84157e-07
4.65191e-07
-7.36984e-07
8.20025e-07
3.74572e-05
-6.005e-07
4.77367e-07
-7.25873e-07
7.99618e-07
3.75175e-05
-6.12263e-07
4.85947e-07
-7.13428e-07
7.79401e-07
3.75867e-05
-6.19829e-07
4.91251e-07
-6.99444e-07
7.58884e-07
3.76628e-05
-6.23597e-07
4.93605e-07
-6.83884e-07
7.37782e-07
3.77442e-05
-6.23873e-07
4.9326e-07
-6.66689e-07
7.15825e-07
3.78297e-05
-6.20925e-07
4.90467e-07
-6.47722e-07
6.92705e-07
3.79179e-05
-6.14996e-07
4.85511e-07
-6.27145e-07
6.68454e-07
3.80075e-05
-6.06209e-07
4.78522e-07
-6.04765e-07
6.42786e-07
3.80977e-05
-5.95223e-07
4.70118e-07
-5.81869e-07
6.16868e-07
3.81875e-05
-5.82164e-07
4.60178e-07
-5.58159e-07
5.90292e-07
3.82772e-05
-5.68891e-07
4.50115e-07
-5.37114e-07
5.66207e-07
3.83655e-05
-5.48187e-07
4.33123e-07
-5.04125e-07
5.30895e-07
3.84577e-05
-5.4557e-07
4.33014e-07
-4.94715e-07
5.15075e-07
-3.43483e-07
2.65672e-07
-1.759e-07
2.03904e-07
8.40709e-06
1.04825e-05
-3.67634e-06
-6.90673e-06
3.43268e-06
6.96712e-06
3.1339e-06
-9.8341e-07
-1.63527e-06
9.24749e-07
6.1168e-06
1.57489e-06
-3.19616e-07
-7.08439e-07
3.03488e-07
5.67758e-06
8.31458e-07
-2.96887e-08
-3.45191e-07
-1.73603e-08
5.43776e-06
5.002e-07
2.72295e-08
-2.00377e-07
-8.72286e-08
5.29761e-06
3.58856e-07
7.68099e-08
-1.51576e-07
-1.43946e-07
5.21343e-06
2.93675e-07
1.205e-07
-1.34496e-07
-1.95502e-07
5.16278e-06
2.62329e-07
1.54481e-07
-1.29209e-07
-2.36944e-07
5.13285e-06
2.49884e-07
1.83606e-07
-1.30711e-07
-2.72847e-07
5.11597e-06
2.49975e-07
2.11365e-07
-1.37153e-07
-3.07312e-07
5.10713e-06
2.59068e-07
2.39393e-07
-1.47391e-07
-3.42226e-07
5.10272e-06
2.74471e-07
2.67466e-07
-1.60248e-07
-3.77278e-07
5.10003e-06
2.93435e-07
2.94237e-07
-1.7423e-07
-4.10752e-07
5.09698e-06
3.13108e-07
3.17778e-07
-1.87655e-07
-4.40182e-07
5.09208e-06
3.3103e-07
3.36348e-07
-1.99117e-07
-4.63362e-07
5.08438e-06
3.45506e-07
3.48991e-07
-2.07744e-07
-4.7905e-07
5.07338e-06
3.55641e-07
3.55553e-07
-2.13185e-07
-4.87015e-07
5.059e-06
3.61204e-07
3.56491e-07
-2.15503e-07
-4.8781e-07
5.04142e-06
3.62466e-07
3.52676e-07
-2.15046e-07
-4.8252e-07
5.02104e-06
3.59989e-07
3.45146e-07
-2.12302e-07
-4.72446e-07
4.99833e-06
3.54454e-07
3.34918e-07
-2.07786e-07
-4.58877e-07
4.97382e-06
3.4658e-07
3.22929e-07
-2.02001e-07
-4.42999e-07
4.94802e-06
3.37025e-07
3.0995e-07
-1.95379e-07
-4.25794e-07
4.92139e-06
3.26352e-07
2.96578e-07
-1.8827e-07
-4.08031e-07
4.89433e-06
3.15052e-07
2.83248e-07
-1.80966e-07
-3.90273e-07
4.86716e-06
3.03531e-07
2.70285e-07
-1.73703e-07
-3.72947e-07
4.84014e-06
2.92023e-07
2.57839e-07
-1.66593e-07
-3.56263e-07
4.81349e-06
2.80703e-07
2.45984e-07
-1.59709e-07
-3.40317e-07
4.78738e-06
2.69394e-07
2.34669e-07
-1.52899e-07
-3.25049e-07
4.76201e-06
2.5799e-07
2.23875e-07
-1.46059e-07
-3.10418e-07
4.73769e-06
2.4567e-07
2.1301e-07
-1.38627e-07
-2.95702e-07
4.71453e-06
2.34384e-07
2.04042e-07
-1.32029e-07
-2.83265e-07
4.69361e-06
2.12955e-07
1.84311e-07
-1.18272e-07
-2.58028e-07
4.67152e-06
2.21422e-07
1.92388e-07
-1.26046e-07
-2.65742e-07
7.15024e-08
1.20247e-09
-1.83078e-08
-3.85548e-08
1.66052e-05
1.67385e-05
8.11954e-06
-1.26971e-05
-1.09851e-05
1.57608e-05
6.06222e-06
2.78039e-06
-4.29543e-06
-3.70277e-06
1.48869e-05
3.67465e-06
1.64195e-06
-2.3872e-06
-2.05549e-06
1.41823e-05
2.25289e-06
9.06126e-07
-1.36437e-06
-1.09008e-06
1.36625e-05
1.41512e-06
5.12767e-07
-8.08445e-07
-5.9964e-07
1.32839e-05
9.48633e-07
3.02778e-07
-5.20921e-07
-3.51913e-07
1.30091e-05
6.71135e-07
1.77202e-07
-3.6095e-07
-2.12576e-07
1.28104e-05
4.91791e-07
9.60748e-08
-2.62448e-07
-1.26681e-07
1.26672e-05
3.73414e-07
4.20044e-08
-2.00321e-07
-7.18907e-08
1.2565e-05
2.94661e-07
4.37824e-09
-1.6119e-07
-3.57012e-08
1.24938e-05
2.41871e-07
-2.35019e-08
-1.36749e-07
-1.0407e-08
1.24463e-05
2.06649e-07
-4.55333e-08
-1.22017e-07
8.41079e-09
1.24175e-05
1.83514e-07
-6.38744e-08
-1.13897e-07
2.30832e-08
1.24037e-05
1.68705e-07
-7.97254e-08
-1.102e-07
3.50359e-08
1.2402e-05
1.59562e-07
-9.36522e-08
-1.09342e-07
4.50492e-08
1.24104e-05
1.54137e-07
-1.05849e-07
-1.10148e-07
5.35066e-08
1.24269e-05
1.51022e-07
-1.16424e-07
-1.11772e-07
6.06737e-08
1.24501e-05
1.49232e-07
-1.25454e-07
-1.13649e-07
6.67162e-08
1.24786e-05
1.48047e-07
-1.32991e-07
-1.15374e-07
7.17412e-08
1.25116e-05
1.46968e-07
-1.39091e-07
-1.16677e-07
7.58308e-08
1.25481e-05
1.45654e-07
-1.43827e-07
-1.17389e-07
7.90547e-08
1.25874e-05
1.4393e-07
-1.47306e-07
-1.17443e-07
8.14949e-08
1.2629e-05
1.41732e-07
-1.49641e-07
-1.16852e-07
8.32248e-08
1.26722e-05
1.39061e-07
-1.50926e-07
-1.15663e-07
8.42949e-08
1.27167e-05
1.35957e-07
-1.51263e-07
-1.1396e-07
8.47616e-08
1.27621e-05
1.32397e-07
-1.50751e-07
-1.11765e-07
8.47087e-08
1.28081e-05
1.28249e-07
-1.49559e-07
-1.09017e-07
8.43171e-08
1.28545e-05
1.23514e-07
-1.47932e-07
-1.05759e-07
8.38123e-08
1.2901e-05
1.17907e-07
-1.45966e-07
-1.01746e-07
8.33213e-08
1.29474e-05
1.12036e-07
-1.43902e-07
-9.74582e-08
8.29241e-08
1.29935e-05
1.05847e-07
-1.41309e-07
-9.27749e-08
8.21587e-08
1.30391e-05
1.01104e-07
-1.3842e-07
-8.9166e-08
8.0849e-08
1.30832e-05
9.22077e-08
-1.31999e-07
-8.16683e-08
7.73891e-08
1.31297e-05
9.23706e-08
-1.33434e-07
-8.40825e-08
7.86347e-08
-4.608e-08
-7.38321e-08
3.47453e-08
5.94885e-08
8.29192e-06
-3.67002e-06
2.54192e-06
-7.41529e-06
1.21453e-05
6.82184e-06
-8.38037e-07
4.99319e-07
-1.81245e-06
3.62125e-06
5.97978e-06
-3.57819e-07
2.29718e-07
-6.87719e-07
1.65788e-06
5.54464e-06
-9.68782e-08
1.59201e-08
-3.16732e-07
8.32823e-07
5.30767e-06
-5.90305e-08
-1.60955e-09
-1.43943e-07
4.41556e-07
5.16883e-06
-2.46628e-08
-2.70789e-08
-8.78994e-08
2.78477e-07
5.08433e-06
1.22735e-08
-6.3273e-08
-7.35971e-08
2.09097e-07
5.03268e-06
4.25333e-08
-9.62908e-08
-7.21091e-08
1.77516e-07
5.00215e-06
6.89397e-08
-1.27248e-07
-7.7937e-08
1.66781e-07
4.98575e-06
9.36808e-08
-1.57574e-07
-8.83381e-08
1.68631e-07
4.97925e-06
1.17502e-07
-1.87758e-07
-1.01527e-07
1.78286e-07
4.97997e-06
1.40866e-07
-2.18092e-07
-1.1653e-07
1.93038e-07
4.98611e-06
1.63682e-07
-2.48256e-07
-1.32444e-07
2.10877e-07
4.99638e-06
1.85465e-07
-2.77447e-07
-1.48349e-07
2.30059e-07
5.00978e-06
2.05537e-07
-3.04609e-07
-1.63346e-07
2.49022e-07
5.02545e-06
2.23249e-07
-3.28717e-07
-1.7669e-07
2.66481e-07
5.04267e-06
2.38126e-07
-3.4899e-07
-1.87859e-07
2.81507e-07
5.06077e-06
2.49936e-07
-3.65001e-07
-1.96593e-07
2.93553e-07
5.0792e-06
2.58612e-07
-3.76595e-07
-2.02814e-07
3.0237e-07
5.09748e-06
2.64256e-07
-3.83885e-07
-2.06608e-07
3.07953e-07
5.11525e-06
2.67095e-07
-3.87174e-07
-2.08161e-07
3.1047e-07
5.13223e-06
2.67404e-07
-3.86867e-07
-2.07729e-07
3.10213e-07
5.14822e-06
2.65514e-07
-3.83453e-07
-2.05614e-07
3.0756e-07
5.16312e-06
2.61768e-07
-3.77447e-07
-2.02117e-07
3.02903e-07
5.17685e-06
2.56491e-07
-3.69341e-07
-1.97531e-07
2.96642e-07
5.18944e-06
2.49993e-07
-3.59599e-07
-1.92127e-07
2.89151e-07
5.2009e-06
2.42535e-07
-3.48602e-07
-1.86103e-07
2.80696e-07
5.21131e-06
2.34437e-07
-3.36777e-07
-1.79695e-07
2.71621e-07
5.2208e-06
2.25989e-07
-3.24483e-07
-1.7302e-07
2.62027e-07
5.22951e-06
2.17561e-07
-3.12185e-07
-1.66307e-07
2.52238e-07
5.23765e-06
2.08806e-07
-2.99486e-07
-1.59135e-07
2.41714e-07
5.24541e-06
2.01132e-07
-2.88208e-07
-1.52909e-07
2.32211e-07
5.25277e-06
1.81879e-07
-2.63099e-07
-1.37111e-07
2.10996e-07
5.25882e-06
1.87064e-07
-2.67033e-07
-1.43765e-07
2.17634e-07
-4.38791e-08
1.07037e-08
3.61633e-08
-4.44208e-09
4.58921e-05
-1.23272e-05
-2.0843e-05
1.24874e-05
1.87418e-05
4.64432e-05
-4.93426e-06
-8.66872e-06
4.97211e-06
8.07971e-06
4.65482e-05
-3.56617e-06
-6.09375e-06
3.66569e-06
5.88922e-06
4.63166e-05
-2.63498e-06
-4.34502e-06
2.75976e-06
4.45189e-06
4.58955e-05
-1.96494e-06
-3.13658e-06
2.10567e-06
3.41698e-06
4.53581e-05
-1.52445e-06
-2.35865e-06
1.68084e-06
2.7396e-06
4.47749e-05
-1.20659e-06
-1.81428e-06
1.36651e-06
2.23764e-06
4.42018e-05
-9.60502e-07
-1.40715e-06
1.1108e-06
1.82988e-06
4.3675e-05
-7.70439e-07
-1.10161e-06
9.02235e-07
1.49663e-06
4.32128e-05
-6.25115e-07
-8.73188e-07
7.33809e-07
1.2267e-06
4.28213e-05
-5.14368e-07
-7.01925e-07
5.98356e-07
1.00941e-06
4.24993e-05
-4.30212e-07
-5.73026e-07
4.89706e-07
8.35528e-07
4.22418e-05
-3.66263e-07
-4.75636e-07
4.02516e-07
6.9694e-07
4.20421e-05
-3.17591e-07
-4.01538e-07
3.32372e-07
5.86463e-07
4.18933e-05
-2.804e-07
-3.44679e-07
2.75716e-07
4.98136e-07
4.17888e-05
-2.5168e-07
-3.00617e-07
2.2962e-07
4.27163e-07
4.17225e-05
-2.29186e-07
-2.65983e-07
1.91816e-07
3.69641e-07
4.1689e-05
-2.11244e-07
-2.38273e-07
1.60573e-07
3.22484e-07
4.16834e-05
-1.96548e-07
-2.15654e-07
1.34444e-07
2.83346e-07
4.17015e-05
-1.84105e-07
-1.96824e-07
1.12278e-07
2.50508e-07
4.17397e-05
-1.73186e-07
-1.80867e-07
9.32138e-08
2.22672e-07
4.17947e-05
-1.63312e-07
-1.67122e-07
7.66195e-08
1.98842e-07
4.18637e-05
-1.54172e-07
-1.5508e-07
6.20202e-08
1.78216e-07
4.19444e-05
-1.45545e-07
-1.44352e-07
4.90537e-08
1.60157e-07
4.20347e-05
-1.37278e-07
-1.34604e-07
3.74242e-08
1.44104e-07
4.2133e-05
-1.29185e-07
-1.25518e-07
2.68387e-08
1.29573e-07
4.22377e-05
-1.21062e-07
-1.16689e-07
1.70229e-08
1.16056e-07
4.23473e-05
-1.12913e-07
-1.07916e-07
7.93305e-09
1.03298e-07
4.24604e-05
-1.04459e-07
-9.89898e-08
-7.22836e-10
9.10534e-08
4.25759e-05
-9.63956e-08
-9.00902e-08
-8.40893e-09
7.94231e-08
4.26929e-05
-8.84185e-08
-8.10416e-08
-1.55472e-08
6.80089e-08
4.28115e-05
-8.19597e-08
-7.26148e-08
-2.1288e-08
5.72364e-08
4.293e-05
-7.28066e-08
-5.86015e-08
-2.83506e-08
4.12368e-08
4.30557e-05
-6.6205e-08
-4.52165e-08
-3.77842e-08
2.34902e-08
3.70381e-08
1.05884e-07
-9.91356e-08
-1.13403e-07
0.000313226
-1.94233e-05
-9.82666e-06
1.39773e-05
0.000321411
-1.18251e-05
-5.09291e-06
8.73292e-06
0.000327622
-8.77552e-06
-3.75096e-06
6.31549e-06
0.00033309
-7.76375e-06
-3.25831e-06
5.55472e-06
0.000337711
-6.67472e-06
-2.7062e-06
4.75966e-06
0.000341836
-6.00014e-06
-2.38166e-06
4.25668e-06
0.000345672
-5.60662e-06
-2.1918e-06
3.96263e-06
0.000349295
-5.32315e-06
-2.05149e-06
3.75104e-06
0.000352758
-5.11107e-06
-1.94329e-06
3.59211e-06
0.000356097
-4.95361e-06
-1.8593e-06
3.47318e-06
0.000359342
-4.83552e-06
-1.79213e-06
3.38285e-06
0.000362512
-4.74692e-06
-1.73699e-06
3.31373e-06
0.000365623
-4.681e-06
-1.69087e-06
3.2609e-06
0.000368687
-4.6321e-06
-1.65148e-06
3.22038e-06
0.00037171
-4.59519e-06
-1.61713e-06
3.18883e-06
0.000374699
-4.56584e-06
-1.5865e-06
3.16343e-06
0.000377656
-4.5403e-06
-1.55856e-06
3.14188e-06
0.000380581
-4.51559e-06
-1.53236e-06
3.12238e-06
0.000383474
-4.48947e-06
-1.5069e-06
3.10355e-06
0.000386331
-4.46047e-06
-1.48101e-06
3.08445e-06
0.000389148
-4.42773e-06
-1.4534e-06
3.06447e-06
0.000391918
-4.39093e-06
-1.42259e-06
3.04328e-06
0.000394634
-4.35e-06
-1.38705e-06
3.02081e-06
0.000397288
-4.30495e-06
-1.34534e-06
2.99712e-06
0.000399867
-4.25562e-06
-1.2962e-06
2.97233e-06
0.000402361
-4.20156e-06
-1.23864e-06
2.94652e-06
0.000404755
-4.14183e-06
-1.17208e-06
2.91956e-06
0.000407036
-4.07538e-06
-1.09667e-06
2.89129e-06
0.000409188
-4.00065e-06
-1.01287e-06
2.86115e-06
0.000411199
-3.91656e-06
-9.22443e-07
2.82865e-06
0.000413054
-3.82073e-06
-8.26408e-07
2.79199e-06
0.000414745
-3.71416e-06
-7.27321e-07
2.75052e-06
0.000416254
-3.57462e-06
-6.21111e-07
2.68671e-06
0.00041757
-3.4054e-06
-4.95837e-07
2.5851e-06
-2.31743e-06
-1.58252e-07
1.68052e-06
3.71627e-05
2.07367e-05
-2.09607e-05
-1.40539e-05
1.31763e-05
3.7222e-05
9.48952e-06
-9.23967e-06
-4.42886e-06
4.11969e-06
3.68544e-05
6.92934e-06
-6.43961e-06
-3.00845e-06
2.88636e-06
3.625e-05
5.22307e-06
-4.60297e-06
-1.84375e-06
1.82809e-06
3.55778e-05
3.9695e-06
-3.32646e-06
-1.17651e-06
1.20562e-06
3.4916e-05
3.13346e-06
-2.51689e-06
-7.78023e-07
8.23223e-07
3.43138e-05
2.53581e-06
-1.97681e-06
-4.95154e-07
5.38393e-07
3.37947e-05
2.08539e-06
-1.59853e-06
-2.79823e-07
3.12082e-07
3.33626e-05
1.74747e-06
-1.33326e-06
-1.12594e-07
1.3043e-07
3.30117e-05
1.49698e-06
-1.14862e-06
1.99563e-08
-1.73593e-08
3.27322e-05
1.31347e-06
-1.02178e-06
1.27692e-07
-1.39938e-07
3.25141e-05
1.18135e-06
-9.37131e-07
2.17698e-07
-2.43846e-07
3.23485e-05
1.08856e-06
-8.8352e-07
2.94765e-07
-3.34136e-07
3.22274e-05
1.02481e-06
-8.52041e-07
3.62194e-07
-4.139e-07
3.21441e-05
9.82122e-07
-8.35754e-07
4.21687e-07
-4.84777e-07
3.20926e-05
9.54326e-07
-8.29278e-07
4.73917e-07
-5.47415e-07
3.20674e-05
9.3633e-07
-8.28354e-07
5.19194e-07
-6.01997e-07
3.2064e-05
9.24104e-07
-8.29748e-07
5.57708e-07
-6.48621e-07
3.20782e-05
9.14597e-07
-8.31062e-07
5.8964e-07
-6.87401e-07
3.21066e-05
9.05678e-07
-8.30697e-07
6.1523e-07
-7.18568e-07
3.2146e-05
8.95881e-07
-8.27658e-07
6.34868e-07
-7.42501e-07
3.21938e-05
8.8424e-07
-8.21403e-07
6.4895e-07
-7.59578e-07
3.22476e-05
8.70308e-07
-8.11829e-07
6.57848e-07
-7.702e-07
3.23057e-05
8.53975e-07
-7.99102e-07
6.61968e-07
-7.74866e-07
3.23662e-05
8.35404e-07
-7.83593e-07
6.61725e-07
-7.74116e-07
3.24281e-05
8.14851e-07
-7.6572e-07
6.57539e-07
-7.6853e-07
3.24902e-05
7.92465e-07
-7.45765e-07
6.49894e-07
-7.58756e-07
3.25519e-05
7.68541e-07
-7.24116e-07
6.39315e-07
-7.45414e-07
3.26125e-05
7.4297e-07
-7.00764e-07
6.26455e-07
-7.29284e-07
3.26716e-05
7.16391e-07
-6.76331e-07
6.11828e-07
-7.10976e-07
3.27289e-05
6.88463e-07
-6.50413e-07
5.9562e-07
-6.90904e-07
3.27844e-05
6.62298e-07
-6.26164e-07
5.78579e-07
-6.70183e-07
3.28371e-05
6.2284e-07
-5.87568e-07
5.49406e-07
-6.37409e-07
3.28908e-05
6.12237e-07
-5.82179e-07
5.39891e-07
-6.23706e-07
2.89414e-07
-2.56742e-07
2.73096e-07
-3.33226e-07
0.000229458
-2.7718e-05
1.6472e-05
-1.30011e-05
1.22376e-05
0.000235203
-1.48464e-05
7.68446e-06
-5.69839e-06
7.11525e-06
0.000239826
-1.12253e-05
5.85098e-06
-4.44473e-06
5.19575e-06
0.000243766
-9.64206e-06
5.01328e-06
-3.79078e-06
4.47941e-06
0.000247089
-8.13352e-06
4.11137e-06
-3.10495e-06
3.80494e-06
0.000250058
-7.23871e-06
3.59902e-06
-2.72214e-06
3.39263e-06
0.000252807
-6.69464e-06
3.29484e-06
-2.49306e-06
3.14365e-06
0.000255389
-6.29194e-06
3.06765e-06
-2.31965e-06
2.96196e-06
0.000257837
-5.97999e-06
2.89115e-06
-2.18264e-06
2.82367e-06
0.000260172
-5.73362e-06
2.7526e-06
-2.07222e-06
2.71761e-06
0.000262408
-5.531e-06
2.64e-06
-1.979e-06
2.63448e-06
0.000264548
-5.35697e-06
2.5454e-06
-1.89652e-06
2.56826e-06
0.00026659
-5.20023e-06
2.46341e-06
-1.82029e-06
2.51473e-06
0.000268528
-5.05117e-06
2.38965e-06
-1.74659e-06
2.47029e-06
0.00027035
-4.90175e-06
2.32045e-06
-1.67224e-06
2.43163e-06
0.000272042
-4.74591e-06
2.25257e-06
-1.59452e-06
2.39564e-06
0.000273591
-4.57997e-06
2.18309e-06
-1.51125e-06
2.35947e-06
0.000274985
-4.40275e-06
2.10933e-06
-1.4212e-06
2.32063e-06
0.000276218
-4.21527e-06
2.02887e-06
-1.3243e-06
2.277e-06
0.000277294
-4.02022e-06
1.93967e-06
-1.22176e-06
2.22705e-06
0.00027822
-3.82129e-06
1.84033e-06
-1.11575e-06
2.16992e-06
0.000279016
-3.62237e-06
1.73022e-06
-1.009e-06
2.10545e-06
0.000279703
-3.42676e-06
1.60963e-06
-9.04048e-07
2.03409e-06
0.000280306
-3.23699e-06
1.47973e-06
-8.02808e-07
1.95687e-06
0.00028085
-3.05453e-06
1.3425e-06
-7.06454e-07
1.87515e-06
0.000281354
-2.87992e-06
1.20041e-06
-6.15561e-07
1.79038e-06
0.000281837
-2.71307e-06
1.05615e-06
-5.30098e-07
1.70396e-06
0.000282311
-2.55396e-06
9.12784e-07
-4.50047e-07
1.6173e-06
0.000282784
-2.40176e-06
7.72652e-07
-3.75088e-07
1.53146e-06
0.00028326
-2.25649e-06
6.38973e-07
-3.0602e-07
1.44733e-06
0.000283741
-2.11607e-06
5.12045e-07
-2.41531e-07
1.36487e-06
0.000284227
-1.98222e-06
3.93538e-07
-1.82045e-07
1.28484e-06
0.000284709
-1.83212e-06
2.7584e-07
-1.21372e-07
1.19595e-06
0.000285194
-1.67875e-06
1.37961e-07
-4.53668e-08
1.10068e-06
-9.3082e-07
-1.35418e-07
1.12787e-07
6.26149e-07
7.67309e-06
1.25208e-05
-1.20437e-07
-3.28138e-06
-8.35495e-06
7.16665e-06
4.26871e-06
-1.56073e-07
-9.77325e-07
-2.62888e-06
6.67252e-06
2.54049e-06
-1.72743e-07
-4.66908e-07
-1.4067e-06
6.31784e-06
1.42054e-06
-1.89473e-07
-1.64477e-07
-7.11918e-07
6.07335e-06
8.60499e-07
-1.76111e-07
-4.2079e-08
-3.97818e-07
5.90401e-06
5.4651e-07
-1.79327e-07
3.34321e-08
-2.31278e-07
5.78601e-06
3.53758e-07
-1.90983e-07
8.71486e-08
-1.31924e-07
5.70311e-06
2.31972e-07
-2.05344e-07
1.2639e-07
-7.01099e-08
5.64416e-06
1.53379e-07
-2.21549e-07
1.57459e-07
-3.03471e-08
5.60137e-06
1.02485e-07
-2.39103e-07
1.83699e-07
-4.28875e-09
5.56901e-06
7.08684e-08
-2.57344e-07
2.06488e-07
1.23548e-08
5.54282e-06
5.36479e-08
-2.75788e-07
2.26429e-07
2.18976e-08
5.51947e-06
4.74595e-08
-2.93234e-07
2.43194e-07
2.59318e-08
5.49653e-06
4.92704e-08
-3.08042e-07
2.5598e-07
2.57304e-08
5.47241e-06
5.63553e-08
-3.18985e-07
2.64255e-07
2.24895e-08
5.44622e-06
6.63839e-08
-3.25432e-07
2.6794e-07
1.73007e-08
5.41758e-06
7.75004e-08
-3.27379e-07
2.67416e-07
1.11004e-08
5.38651e-06
8.83428e-08
-3.25299e-07
2.63389e-07
4.63925e-09
5.35326e-06
9.80087e-08
-3.19909e-07
2.56689e-07
-1.53232e-09
5.31823e-06
1.05988e-07
-3.11998e-07
2.48118e-07
-7.08402e-09
5.28193e-06
1.12086e-07
-3.02345e-07
2.38401e-07
-1.18433e-08
5.24482e-06
1.16355e-07
-2.91626e-07
2.28132e-07
-1.57467e-08
5.20731e-06
1.18946e-07
-2.80367e-07
2.17745e-07
-1.88111e-08
5.16976e-06
1.20038e-07
-2.68951e-07
2.0754e-07
-2.10863e-08
5.1325e-06
1.19884e-07
-2.57656e-07
1.9771e-07
-2.26743e-08
5.09576e-06
1.18753e-07
-2.46642e-07
1.88338e-07
-2.37078e-08
5.05972e-06
1.16949e-07
-2.36009e-07
1.79444e-07
-2.43578e-08
5.02453e-06
1.14775e-07
-2.25753e-07
1.70971e-07
-2.48019e-08
4.99029e-06
1.12295e-07
-2.15896e-07
1.62916e-07
-2.50957e-08
4.95707e-06
1.09652e-07
-2.066e-07
1.5543e-07
-2.52498e-08
4.92503e-06
1.05999e-07
-1.9743e-07
1.48285e-07
-2.48021e-08
4.89398e-06
1.01907e-07
-1.90198e-07
1.42989e-07
-2.36384e-08
4.86531e-06
9.24813e-08
-1.76401e-07
1.32888e-07
-2.02406e-08
4.83503e-06
9.36411e-08
-1.80075e-07
1.36244e-07
-1.95682e-08
8.50573e-08
-7.16236e-08
3.81165e-08
-3.29325e-08
1.15129e-05
-7.15033e-06
1.45897e-05
1.03352e-07
-6.52526e-06
1.07895e-05
-2.25951e-06
5.0204e-06
-1.72662e-07
-1.86485e-06
1.00843e-05
-1.24843e-06
3.04474e-06
-2.32144e-07
-8.58984e-07
9.56612e-06
-6.82496e-07
1.75818e-06
-2.60575e-07
-2.96938e-07
9.20413e-06
-4.16251e-07
1.09552e-06
-2.41786e-07
-7.54922e-08
8.94999e-06
-2.797e-07
7.18264e-07
-2.41476e-07
5.70494e-08
8.77014e-06
-2.02775e-07
4.85819e-07
-2.51206e-07
1.48013e-07
8.64197e-06
-1.57443e-07
3.37789e-07
-2.63552e-07
2.11379e-07
8.54963e-06
-1.30843e-07
2.41812e-07
-2.77654e-07
2.59027e-07
8.48186e-06
-1.16124e-07
1.79377e-07
-2.92968e-07
2.97481e-07
8.43028e-06
-1.09571e-07
1.40639e-07
-3.09113e-07
3.2963e-07
8.38836e-06
-1.09249e-07
1.20156e-07
-3.25745e-07
3.5676e-07
8.35118e-06
-1.13419e-07
1.13561e-07
-3.41858e-07
3.78896e-07
8.31511e-06
-1.20234e-07
1.16908e-07
-3.55763e-07
3.95151e-07
8.27771e-06
-1.28054e-07
1.2665e-07
-3.66041e-07
4.04851e-07
8.23751e-06
-1.35645e-07
1.39784e-07
-3.71991e-07
4.08055e-07
8.19387e-06
-1.42175e-07
1.5393e-07
-3.73561e-07
4.05447e-07
8.14674e-06
-1.47174e-07
1.67362e-07
-3.71167e-07
3.981e-07
8.0965e-06
-1.5046e-07
1.78965e-07
-3.65482e-07
3.87221e-07
8.04371e-06
-1.52055e-07
1.88142e-07
-3.57248e-07
3.73953e-07
7.98905e-06
-1.52105e-07
1.94674e-07
-3.47164e-07
3.59256e-07
7.9332e-06
-1.50844e-07
1.98654e-07
-3.35867e-07
3.43908e-07
7.87679e-06
-1.48535e-07
2.00338e-07
-3.23876e-07
3.28477e-07
7.82038e-06
-1.4544e-07
2.00091e-07
-3.11606e-07
3.13363e-07
7.76441e-06
-1.4182e-07
1.98351e-07
-2.99381e-07
2.9882e-07
7.70924e-06
-1.3792e-07
1.9553e-07
-2.87485e-07
2.85047e-07
7.65516e-06
-1.33851e-07
1.91855e-07
-2.76052e-07
2.72124e-07
7.60238e-06
-1.29567e-07
1.87378e-07
-2.64977e-07
2.59945e-07
7.5511e-06
-1.24826e-07
1.81761e-07
-2.54125e-07
2.48487e-07
7.50138e-06
-1.19275e-07
1.74623e-07
-2.43043e-07
2.37433e-07
7.4534e-06
-1.12699e-07
1.65697e-07
-2.31241e-07
2.26275e-07
7.40678e-06
-1.06387e-07
1.56882e-07
-2.20327e-07
2.16413e-07
7.36334e-06
-9.73343e-08
1.44838e-07
-2.02105e-07
1.98037e-07
7.31769e-06
-1.03665e-07
1.55332e-07
-2.04889e-07
1.98785e-07
-6.33609e-08
1.25918e-07
-8.72267e-08
5.29995e-08
1.38967e-05
-9.05555e-06
-6.71536e-06
8.29885e-06
9.30828e-06
1.2747e-05
-2.64458e-06
-2.24622e-06
3.06084e-06
2.97965e-06
1.17519e-05
-1.23287e-06
-1.3422e-06
1.92323e-06
1.64694e-06
1.10654e-05
-5.15887e-07
-8.34527e-07
1.24225e-06
7.94663e-07
1.06105e-05
-2.3982e-07
-5.67742e-07
8.61797e-07
4.00679e-07
1.03064e-05
-9.73239e-08
-4.523e-07
6.82094e-07
1.71653e-07
1.01016e-05
-1.0405e-08
-4.04165e-07
5.98535e-07
2.08307e-08
9.96237e-06
4.5162e-08
-3.87649e-07
5.62928e-07
-8.11982e-08
9.86652e-06
8.32708e-08
-3.89907e-07
5.55973e-07
-1.5349e-07
9.79948e-06
1.11606e-07
-4.04622e-07
5.6799e-07
-2.07931e-07
9.75088e-06
1.33994e-07
-4.27858e-07
5.93277e-07
-2.5082e-07
9.71317e-06
1.51909e-07
-4.56872e-07
6.27611e-07
-2.8493e-07
9.68063e-06
1.65575e-07
-4.88163e-07
6.66105e-07
-3.10982e-07
9.64908e-06
1.7492e-07
-5.17817e-07
7.03598e-07
-3.29155e-07
9.61567e-06
1.79944e-07
-5.42591e-07
7.35673e-07
-3.39612e-07
9.57866e-06
1.80945e-07
-5.60421e-07
7.59404e-07
-3.42918e-07
9.53723e-06
1.78517e-07
-5.70545e-07
7.73535e-07
-3.40075e-07
9.49125e-06
1.7343e-07
-5.73243e-07
7.78168e-07
-3.32374e-07
9.44106e-06
1.66485e-07
-5.69423e-07
7.74278e-07
-3.21156e-07
9.38731e-06
1.58417e-07
-5.60301e-07
7.63305e-07
-3.07669e-07
9.33077e-06
1.49837e-07
-5.47184e-07
7.46857e-07
-2.92975e-07
9.27226e-06
1.4121e-07
-5.31285e-07
7.26488e-07
-2.77901e-07
9.21253e-06
1.3286e-07
-5.13612e-07
7.03525e-07
-2.63045e-07
9.15228e-06
1.24984e-07
-4.94938e-07
6.79005e-07
-2.488e-07
9.09209e-06
1.17676e-07
-4.75881e-07
6.53772e-07
-2.35377e-07
9.03245e-06
1.10941e-07
-4.56863e-07
6.28399e-07
-2.22838e-07
8.97373e-06
1.04713e-07
-4.38205e-07
6.03312e-07
-2.11124e-07
8.91621e-06
9.88865e-08
-4.20127e-07
5.78841e-07
-2.0008e-07
8.86011e-06
9.3424e-08
-4.02679e-07
5.54991e-07
-1.89682e-07
8.80558e-06
8.84355e-08
-3.86319e-07
5.3251e-07
-1.80059e-07
8.75291e-06
8.39672e-08
-3.69724e-07
5.09783e-07
-1.71333e-07
8.7019e-06
8.11514e-08
-3.56207e-07
4.91195e-07
-1.65112e-07
8.65483e-06
7.56016e-08
-3.27704e-07
4.54547e-07
-1.55236e-07
8.60497e-06
7.91279e-08
-3.3601e-07
4.64054e-07
-1.57413e-07
-5.78193e-09
-1.27342e-07
1.98609e-07
-3.29947e-08
1.29822e-05
-8.39111e-06
-8.53387e-06
1.06071e-05
7.92135e-06
1.19891e-05
-2.47413e-06
-2.72597e-06
3.72682e-06
2.46634e-06
1.11145e-05
-1.16658e-06
-1.55634e-06
2.2636e-06
1.33397e-06
1.05016e-05
-4.72274e-07
-9.43471e-07
1.42315e-06
6.05523e-07
1.00887e-05
-2.01739e-07
-6.33447e-07
9.71733e-07
2.76307e-07
9.80824e-06
-5.59349e-08
-4.93268e-07
7.48721e-07
8.09386e-08
9.61627e-06
3.54695e-08
-4.2901e-07
6.35223e-07
-4.97098e-08
9.48386e-06
9.41315e-08
-3.99655e-07
5.76399e-07
-1.38466e-07
9.39164e-06
1.34619e-07
-3.90079e-07
5.4939e-07
-2.01703e-07
9.32645e-06
1.6567e-07
-3.93686e-07
5.43324e-07
-2.50127e-07
9.27887e-06
1.90967e-07
-4.06593e-07
5.51965e-07
-2.88758e-07
9.24184e-06
2.118e-07
-4.26241e-07
5.71234e-07
-3.19758e-07
9.21002e-06
2.28382e-07
-4.49681e-07
5.96978e-07
-3.43863e-07
9.17947e-06
2.40311e-07
-4.73341e-07
6.245e-07
-3.60923e-07
9.14744e-06
2.47321e-07
-4.94099e-07
6.49659e-07
-3.70849e-07
9.11222e-06
2.49569e-07
-5.09909e-07
6.69584e-07
-3.74021e-07
9.07297e-06
2.47617e-07
-5.198e-07
6.82726e-07
-3.71294e-07
9.02953e-06
2.42282e-07
-5.23678e-07
6.88656e-07
-3.63819e-07
8.9822e-06
2.34472e-07
-5.22059e-07
6.87766e-07
-3.52848e-07
8.93157e-06
2.25046e-07
-5.15785e-07
6.80928e-07
-3.39557e-07
8.87836e-06
2.14727e-07
-5.05796e-07
6.69212e-07
-3.24939e-07
8.82335e-06
2.04091e-07
-4.93051e-07
6.53759e-07
-3.09783e-07
8.76724e-06
1.9355e-07
-4.78402e-07
6.35624e-07
-2.94666e-07
8.71069e-06
1.8338e-07
-4.62576e-07
6.15723e-07
-2.79977e-07
8.65424e-06
1.73727e-07
-4.46196e-07
5.94856e-07
-2.65936e-07
8.59833e-06
1.64687e-07
-4.29801e-07
5.73715e-07
-2.52692e-07
8.54332e-06
1.56289e-07
-4.13654e-07
5.52673e-07
-2.40318e-07
8.4895e-06
1.48505e-07
-3.97765e-07
5.31885e-07
-2.28795e-07
8.43712e-06
1.41405e-07
-3.81794e-07
5.11011e-07
-2.18229e-07
8.38633e-06
1.34965e-07
-3.65229e-07
4.89638e-07
-2.08568e-07
8.33743e-06
1.28956e-07
-3.47178e-07
4.66686e-07
-1.99487e-07
8.29013e-06
1.24165e-07
-3.30519e-07
4.45347e-07
-1.91757e-07
8.24617e-06
1.13649e-07
-3.02308e-07
4.09786e-07
-1.77096e-07
8.19953e-06
1.13903e-07
-3.12521e-07
4.18955e-07
-1.73808e-07
6.12154e-09
-1.33061e-07
1.99678e-07
-4.26395e-08
4.87903e-06
7.98389e-06
-2.81786e-06
-5.02954e-06
3.71556e-06
2.00239e-06
-6.56645e-07
-1.02031e-06
3.18014e-06
7.57684e-07
-2.4351e-07
-3.36573e-07
2.93763e-06
3.62201e-07
-8.18872e-08
-1.34677e-07
2.81357e-06
1.67541e-07
-4.69153e-08
-5.55954e-08
2.74392e-06
1.023e-07
-2.64322e-08
-3.08838e-08
2.70373e-06
8.63838e-08
-1.06429e-08
-2.32794e-08
2.6808e-06
8.5715e-08
6.70147e-10
-2.09225e-08
2.66859e-06
9.33996e-08
9.48899e-09
-2.17379e-08
2.66353e-06
1.06206e-07
1.70247e-08
-2.44916e-08
2.66345e-06
1.22126e-07
2.38171e-08
-2.83627e-08
2.66699e-06
1.40082e-07
3.01781e-08
-3.29331e-08
2.67324e-06
1.59106e-07
3.61885e-08
-3.7855e-08
2.68153e-06
1.78181e-07
4.17926e-08
-4.2802e-08
2.69136e-06
1.96309e-07
4.68689e-08
-4.74753e-08
2.70231e-06
2.12642e-07
5.12961e-08
-5.16391e-08
2.714e-06
2.26582e-07
5.49919e-08
-5.51361e-08
2.72609e-06
2.37808e-07
5.79284e-08
-5.78925e-08
2.7383e-06
2.4619e-07
6.01053e-08
-5.98876e-08
2.75037e-06
2.51773e-07
6.15582e-08
-6.11476e-08
2.76212e-06
2.54729e-07
6.23476e-08
-6.17283e-08
2.77339e-06
2.55299e-07
6.25384e-08
-6.1704e-08
2.78408e-06
2.53786e-07
6.22047e-08
-6.11643e-08
2.79412e-06
2.50501e-07
6.14219e-08
-6.01985e-08
2.80348e-06
2.45763e-07
6.02598e-08
-5.88942e-08
2.81215e-06
2.39866e-07
5.87859e-08
-5.73329e-08
2.82015e-06
2.33035e-07
5.70607e-08
-5.55709e-08
2.82751e-06
2.25591e-07
5.5172e-08
-5.36825e-08
2.8343e-06
2.1768e-07
5.3206e-08
-5.16942e-08
2.84063e-06
2.09662e-07
5.12728e-08
-4.96828e-08
2.84663e-06
2.01061e-07
4.92657e-08
-4.74823e-08
2.85237e-06
1.93465e-07
4.75393e-08
-4.56406e-08
2.85794e-06
1.74192e-07
4.24052e-08
-4.0257e-08
2.86219e-06
1.8178e-07
4.44789e-08
-4.34939e-08
-4.32382e-08
-2.35964e-08
2.20097e-08
4.1281e-05
-9.31981e-06