/*--------------------------------*- C++ -*----------------------------------*\
| =========                 |                                                 |
| \\      /  F ield         | OpenFOAM: The Open Source CFD Toolbox           |
|  \\    /   O peration     | Version:  2.4.x                                 |
|   \\  /    A nd           | Web:      www.OpenFOAM.org                      |
|    \\/     M anipulation  |                                                 |
\*---------------------------------------------------------------------------*/
FoamFile
{
    version     2.0;
    format      ascii;
    class       volScalarField;
    location    "9990/coolant";
    object      T;
}
// * * * * * * * * * * * * * * * * * * * * * * * * * * * * * * * * * * * * * //

dimensions      [0 0 0 1 0 0 0];

internalField   nonuniform List<scalar> 
109760
(
300.002
300.004
300.007
300.011
300.017
300.024
300.036
300.056
300.089
300.143
300.224
300.341
300.5
300.703
300.949
301.235
301.554
301.902
302.271
302.656
303.051
303.452
303.853
304.25
304.64
305.02
305.385
305.734
306.063
306.371
306.656
306.917
307.152
307.36
307.532
300.042
300.089
300.157
300.263
300.426
300.668
301.002
301.432
301.948
302.536
303.181
303.866
304.578
305.304
306.034
306.76
307.474
308.17
308.842
309.485
310.095
310.668
311.2
311.689
312.131
312.524
312.864
313.151
313.383
313.557
313.675
313.735
313.737
313.684
313.576
300.673
301.859
303.525
305.48
307.582
309.726
311.851
313.922
315.921
317.837
319.662
321.392
323.025
324.558
325.99
327.32
328.544
329.658
330.654
331.525
332.262
332.858
333.303
333.589
333.709
333.657
333.43
333.023
332.436
331.667
330.72
329.604
328.345
327.017
325.794
300.23
300.565
301.079
301.79
302.687
303.734
304.885
306.1
307.345
308.598
309.84
311.057
312.239
313.377
314.462
315.488
316.449
317.339
318.153
318.887
319.536
320.096
320.565
320.939
321.216
321.393
321.469
321.443
321.314
321.083
320.749
320.316
319.793
319.197
318.568
300.703
301.949
303.681
305.701
307.86
310.058
312.237
314.365
316.42
318.387
320.257
322.021
323.67
325.199
326.6
327.869
329.001
329.991
330.836
331.532
332.075
332.463
332.693
332.763
332.67
332.414
331.994
331.411
330.666
329.761
328.7
327.494
326.171
324.798
323.536
300.031
300.067
300.121
300.205
300.337
300.538
300.827
301.208
301.677
302.223
302.831
303.485
304.171
304.875
305.588
306.299
307.002
307.689
308.354
308.993
309.602
310.175
310.709
311.201
311.648
312.047
312.395
312.691
312.931
313.117
313.246
313.317
313.332
313.289
313.19
300
300
300
300
300
300
300
300
300
300
300
300
300
300
300
300
300
300
300
300.001
300.001
300.002
300.003
300.006
300.009
300.016
300.025
300.039
300.059
300.086
300.124
300.175
300.239
300.32
300.416
300.058
300.13
300.243
300.419
300.684
301.055
301.534
302.112
302.769
303.487
304.248
305.037
305.839
306.645
307.444
308.228
308.99
309.725
310.427
311.092
311.716
312.296
312.827
313.308
313.737
314.109
314.425
314.681
314.877
315.01
315.081
315.089
315.035
314.924
314.761
300
300
300
300
300
300.001
300.001
300.001
300.002
300.002
300.003
300.005
300.007
300.012
300.02
300.032
300.052
300.083
300.127
300.19
300.273
300.379
300.51
300.664
300.839
301.034
301.243
301.465
301.695
301.93
302.167
302.404
302.64
302.871
303.091
300.3
300.745
301.42
302.314
303.397
304.61
305.9
307.228
308.565
309.891
311.196
312.471
313.71
314.913
316.077
317.2
318.28
319.312
320.291
321.211
322.064
322.842
323.539
324.145
324.654
325.059
325.353
325.531
325.59
325.524
325.334
325.018
324.585
324.058
323.505
300.286
300.706
301.344
302.197
303.239
304.416
305.675
306.977
308.291
309.6
310.888
312.149
313.377
314.569
315.723
316.838
317.91
318.935
319.909
320.825
321.676
322.455
323.155
323.766
324.284
324.699
325.008
325.203
325.281
325.238
325.071
324.78
324.372
323.873
323.349
300.33
300.839
301.616
302.639
303.86
305.211
306.63
308.074
309.516
310.937
312.325
313.674
314.978
316.235
317.443
318.6
319.703
320.749
321.73
322.642
323.477
324.227
324.885
325.443
325.894
326.231
326.449
326.541
326.505
326.338
326.038
325.607
325.055
324.411
323.753
300.351
300.858
301.611
302.597
303.777
305.088
306.472
307.887
309.303
310.702
312.071
313.402
314.691
315.933
317.128
318.273
319.364
320.399
321.371
322.275
323.104
323.851
324.507
325.066
325.52
325.863
326.089
326.193
326.172
326.022
325.741
325.33
324.799
324.179
323.545
301.134
303.074
305.567
308.322
311.154
313.96
316.683
319.295
321.783
324.136
326.344
328.4
330.295
332.024
333.581
334.961
336.159
337.172
337.995
338.625
339.059
339.295
339.33
339.162
338.79
338.215
337.439
336.462
335.288
333.922
332.371
330.653
328.813
326.959
325.35
300.042
300.092
300.172
300.299
300.496
300.787
301.181
301.676
302.259
302.912
303.616
304.355
305.113
305.879
306.643
307.398
308.137
308.857
309.553
310.222
310.862
311.47
312.043
312.579
313.076
313.53
313.939
314.301
314.612
314.871
315.073
315.219
315.307
315.34
315.322
300.074
300.169
300.322
300.558
300.903
301.371
301.957
302.644
303.407
304.224
305.076
305.946
306.821
307.691
308.545
309.377
310.18
310.949
311.68
312.368
313.011
313.605
314.147
314.636
315.068
315.442
315.755
316.006
316.192
316.312
316.365
316.35
316.268
316.125
315.934
300.145
300.344
300.659
301.114
301.725
302.481
303.354
304.311
305.321
306.361
307.411
308.458
309.489
310.495
311.469
312.401
313.287
314.121
314.897
315.612
316.262
316.842
317.351
317.784
318.14
318.416
318.611
318.723
318.752
318.695
318.554
318.33
318.026
317.654
317.236
300.263
300.657
301.262
302.081
303.097
304.263
305.523
306.832
308.159
309.48
310.78
312.045
313.267
314.439
315.554
316.606
317.593
318.51
319.353
320.119
320.805
321.408
321.923
322.347
322.676
322.908
323.039
323.066
322.988
322.802
322.509
322.11
321.613
321.041
320.442
301.54
303.986
306.937
310.106
313.308
316.449
319.475
322.366
325.106
327.684
330.091
332.319
334.363
336.215
337.87
339.322
340.568
341.604
342.425
343.027
343.408
343.564
343.493
343.192
342.662
341.901
340.913
339.701
338.268
336.619
334.765
332.729
330.566
328.417
326.605
300.048
300.104
300.191
300.325
300.529
300.826
301.224
301.721
302.306
302.959
303.666
304.408
305.171
305.945
306.717
307.48
308.227
308.95
309.645
310.306
310.929
311.51
312.045
312.532
312.966
313.346
313.669
313.932
314.135
314.275
314.353
314.368
314.32
314.212
314.047
300.718
301.945
303.637
305.616
307.728
309.883
312.023
314.112
316.133
318.072
319.917
321.659
323.291
324.804
326.192
327.449
328.571
329.551
330.386
331.073
331.607
331.986
332.207
332.268
332.168
331.907
331.484
330.9
330.158
329.26
328.209
327.018
325.712
324.359
323.114
300.047
300.112
300.22
300.398
300.675
301.066
301.571
302.176
302.86
303.601
304.382
305.186
306.005
306.834
307.669
308.509
309.351
310.192
311.029
311.859
312.676
313.476
314.251
314.997
315.706
316.374
316.994
317.56
318.066
318.507
318.877
319.173
319.394
319.544
319.636
300.047
300.111
300.218
300.395
300.671
301.061
301.566
302.17
302.853
303.594
304.374
305.178
305.996
306.825
307.66
308.499
309.34
310.181
311.018
311.848
312.664
313.463
314.238
314.983
315.693
316.36
316.979
317.543
318.048
318.488
318.859
319.16
319.389
319.544
319.638
300.34
300.935
301.841
303.018
304.395
305.886
307.429
308.983
310.523
312.031
313.497
314.916
316.288
317.611
318.886
320.109
321.277
322.385
323.427
324.393
325.275
326.063
326.748
327.322
327.776
328.103
328.296
328.351
328.264
328.028
327.643
327.108
326.437
325.671
324.917
300.381
301.059
302.077
303.375
304.865
306.46
308.094
309.729
311.34
312.911
314.431
315.899
317.315
318.677
319.985
321.238
322.43
323.558
324.611
325.583
326.463
327.242
327.91
328.458
328.878
329.162
329.304
329.299
329.143
328.835
328.374
327.763
327.015
326.165
325.324
300.001
300.002
300.004
300.006
300.009
300.013
300.019
300.029
300.045
300.072
300.116
300.184
300.284
300.422
300.601
300.822
301.08
301.372
301.692
302.033
302.389
302.756
303.128
303.501
303.872
304.236
304.59
304.932
305.258
305.567
305.856
306.125
306.371
306.593
306.783
300.954
302.647
304.851
307.32
309.879
312.426
314.908
317.296
319.575
321.743
323.798
325.74
327.571
329.291
330.901
332.395
333.768
335.011
336.113
337.061
337.844
338.449
338.866
339.083
339.092
338.887
338.461
337.814
336.945
335.857
334.554
333.052
331.385
329.659
328.129
300.044
300.096
300.181
300.313
300.516
300.812
301.212
301.711
302.298
302.954
303.66
304.4
305.159
305.925
306.69
307.446
308.187
308.91
309.612
310.288
310.937
311.557
312.143
312.695
313.208
313.68
314.108
314.488
314.819
315.095
315.316
315.48
315.584
315.634
315.632
301.227
303.655
306.743
310.065
313.402
316.661
319.793
322.777
325.6
328.255
330.735
333.038
335.162
337.105
338.867
340.445
341.835
343.032
344.028
344.813
345.379
345.717
345.816
345.669
345.271
344.616
343.703
342.531
341.103
339.423
337.502
335.366
333.076
330.792
328.885
301.497
304.284
307.791
311.539
315.276
318.903
322.373
325.662
328.758
331.653
334.34
336.812
339.06
341.079
342.862
344.403
345.697
346.74
347.528
348.056
348.322
348.325
348.062
347.535
346.745
345.696
344.395
342.846
341.057
339.034
336.791
334.359
331.811
329.317
327.251
300.401
301.045
302.012
303.242
304.665
306.201
307.788
309.381
310.955
312.491
313.981
315.415
316.788
318.097
319.339
320.513
321.616
322.643
323.59
324.452
325.222
325.893
326.458
326.911
327.244
327.453
327.531
327.476
327.284
326.954
326.484
325.879
325.151
324.339
323.535
300.056
300.122
300.226
300.385
300.623
300.96
301.4
301.937
302.555
303.236
303.963
304.721
305.496
306.277
307.055
307.823
308.571
309.295
309.989
310.648
311.268
311.845
312.376
312.857
313.286
313.661
313.979
314.239
314.439
314.578
314.654
314.67
314.623
314.52
314.365
300.265
300.754
301.522
302.552
303.786
305.147
306.575
308.026
309.474
310.9
312.291
313.644
314.957
316.227
317.456
318.64
319.778
320.862
321.889
322.848
323.734
324.535
325.244
325.852
326.351
326.734
326.994
327.125
327.124
326.985
326.705
326.285
325.735
325.089
324.436
300.278
300.799
301.613
302.693
303.975
305.38
306.846
308.333
309.812
311.266
312.681
314.056
315.388
316.676
317.92
319.118
320.267
321.361
322.393
323.357
324.242
325.041
325.745
326.343
326.829
327.195
327.433
327.54
327.512
327.344
327.036
326.589
326.012
325.334
324.638
300
300
300
300
300
300
300.001
300.001
300.001
300.002
300.002
300.003
300.005
300.008
300.013
300.021
300.034
300.053
300.083
300.126
300.185
300.263
300.361
300.482
300.624
300.786
300.967
301.163
301.373
301.593
301.821
302.056
302.296
302.538
302.777
300.41
301.091
302.104
303.373
304.823
306.377
307.977
309.584
311.172
312.725
314.231
315.683
317.074
318.4
319.66
320.849
321.964
323.002
323.957
324.824
325.597
326.268
326.831
327.279
327.605
327.804
327.87
327.801
327.592
327.243
326.753
326.126
325.376
324.544
323.723
300.228
300.576
301.128
301.89
302.844
303.945
305.144
306.396
307.672
308.949
310.209
311.441
312.635
313.781
314.872
315.903
316.868
317.763
318.583
319.326
319.988
320.565
321.056
321.456
321.764
321.977
322.092
322.109
322.024
321.839
321.551
321.164
320.683
320.131
319.55
300.761
302.02
303.712
305.686
307.801
309.964
312.115
314.218
316.251
318.201
320.058
321.81
323.45
324.971
326.367
327.63
328.755
329.738
330.572
331.255
331.781
332.149
332.354
332.396
332.274
331.987
331.536
330.924
330.152
329.223
328.141
326.918
325.583
324.202
322.924
301.521
304.102
307.334
310.828
314.344
317.775
321.068
324.196
327.149
329.919
332.503
334.898
337.105
339.123
340.951
342.586
344.025
345.258
346.279
347.076
347.638
347.956
348.019
347.82
347.352
346.611
345.595
344.304
342.741
340.912
338.828
336.518
334.052
331.604
329.592
301.267
303.725
306.891
310.319
313.761
317.114
320.328
323.379
326.258
328.96
331.481
333.819
335.977
337.954
339.75
341.363
342.79
344.022
345.05
345.865
346.454
346.807
346.914
346.766
346.356
345.68
344.736
343.524
342.045
340.303
338.308
336.087
333.704
331.33
329.361
300.306
300.737
301.385
302.26
303.33
304.547
305.856
307.214
308.588
309.956
311.3
312.608
313.871
315.078
316.222
317.298
318.299
319.221
320.058
320.808
321.465
322.028
322.492
322.855
323.114
323.268
323.314
323.251
323.08
322.798
322.407
321.911
321.317
320.652
319.966
300.023
300.048
300.086
300.144
300.234
300.377
300.591
300.887
301.269
301.729
302.256
302.835
303.452
304.094
304.751
305.413
306.072
306.721
307.355
307.968
308.556
309.115
309.64
310.129
310.579
310.987
311.35
311.666
311.933
312.151
312.318
312.434
312.498
312.51
312.469
300.049
300.107
300.197
300.334
300.544
300.847
301.253
301.757
302.345
302.999
303.703
304.44
305.198
305.964
306.728
307.483
308.222
308.937
309.625
310.279
310.896
311.472
312.002
312.485
312.916
313.294
313.616
313.881
314.086
314.23
314.314
314.337
314.299
314.203
314.053
300.179
300.428
300.813
301.364
302.089
302.967
303.962
305.035
306.153
307.29
308.429
309.553
310.653
311.719
312.742
313.716
314.636
315.494
316.288
317.011
317.661
318.233
318.723
319.13
319.449
319.68
319.82
319.869
319.825
319.688
319.459
319.14
318.735
318.261
317.745
300.022
300.047
300.085
300.145
300.241
300.393
300.618
300.926
301.32
301.792
302.33
302.919
303.543
304.192
304.852
305.517
306.177
306.829
307.466
308.086
308.685
309.26
309.809
310.329
310.82
311.277
311.7
312.086
312.431
312.735
312.994
313.208
313.373
313.493
313.565
300.115
300.282
300.556
300.97
301.544
302.265
303.104
304.027
305.003
306.008
307.025
308.04
309.048
310.046
311.03
312.001
312.955
313.891
314.803
315.687
316.538
317.35
318.115
318.826
319.477
320.062
320.573
321.005
321.353
321.611
321.775
321.842
321.815
321.702
321.534
300.12
300.292
300.575
300.998
301.578
302.304
303.146
304.071
305.048
306.056
307.076
308.094
309.105
310.105
311.093
312.066
313.022
313.958
314.871
315.756
316.607
317.417
318.18
318.889
319.538
320.119
320.626
321.053
321.395
321.646
321.805
321.868
321.837
321.72
321.549
300
300.001
300.001
300.002
300.002
300.003
300.004
300.006
300.009
300.014
300.021
300.035
300.058
300.095
300.151
300.233
300.345
300.49
300.669
300.88
301.12
301.384
301.667
301.965
302.272
302.585
302.899
303.211
303.518
303.818
304.108
304.386
304.652
304.903
305.133
300.01
300.021
300.036
300.058
300.091
300.146
300.233
300.369
300.563
300.822
301.146
301.528
301.961
302.434
302.938
303.464
304.004
304.549
305.094
305.632
306.159
306.671
307.162
307.631
308.073
308.485
308.866
309.212
309.522
309.794
310.027
310.22
310.372
310.482
310.545
300.065
300.146
300.281
300.493
300.813
301.256
301.818
302.482
303.225
304.024
304.858
305.712
306.574
307.433
308.283
309.119
309.937
310.733
311.506
312.252
312.969
313.654
314.302
314.911
315.475
315.992
316.455
316.862
317.208
317.489
317.702
317.844
317.915
317.919
317.864
300.153
300.371
300.726
301.24
301.927
302.766
303.717
304.743
305.812
306.898
307.985
309.062
310.118
311.15
312.155
313.129
314.07
314.975
315.841
316.664
317.44
318.164
318.829
319.431
319.965
320.423
320.802
321.096
321.301
321.413
321.43
321.35
321.177
320.923
320.621
300.452
301.234
302.38
303.802
305.407
307.109
308.846
310.576
312.274
313.922
315.511
317.029
318.471
319.831
321.102
322.281
323.364
324.347
325.228
326.001
326.662
327.208
327.634
327.935
328.108
328.148
328.054
327.822
327.452
326.943
326.297
325.519
324.624
323.657
322.716
300.113
300.255
300.479
300.815
301.288
301.902
302.641
303.478
304.385
305.334
306.308
307.29
308.266
309.226
310.161
311.064
311.928
312.748
313.52
314.238
314.9
315.503
316.043
316.517
316.924
317.26
317.524
317.713
317.827
317.863
317.822
317.703
317.509
317.248
316.94
300.002
300.005
300.008
300.012
300.018
300.028
300.042
300.066
300.106
300.168
300.26
300.392
300.568
300.79
301.058
301.367
301.71
302.081
302.472
302.877
303.29
303.706
304.12
304.529
304.929
305.316
305.69
306.046
306.384
306.702
306.997
307.269
307.516
307.737
307.928
300.007
300.015
300.027
300.044
300.07
300.113
300.183
300.292
300.453
300.672
300.953
301.293
301.683
302.116
302.582
303.072
303.579
304.094
304.613
305.129
305.639
306.139
306.627
307.1
307.557
307.994
308.41
308.803
309.171
309.511
309.823
310.103
310.352
310.567
310.744
300.168
300.414
300.813
301.383
302.13
303.026
304.029
305.1
306.209
307.333
308.457
309.568
310.658
311.721
312.753
313.751
314.713
315.634
316.512
317.343
318.122
318.845
319.506
320.099
320.618
321.059
321.416
321.685
321.861
321.94
321.92
321.801
321.584
321.286
320.942
300.229
300.564
301.077
301.787
302.68
303.72
304.864
306.069
307.304
308.545
309.774
310.98
312.15
313.276
314.35
315.365
316.316
317.198
318.004
318.732
319.377
319.936
320.404
320.78
321.061
321.245
321.331
321.317
321.204
320.99
320.677
320.268
319.769
319.199
318.599
300.264
300.662
301.284
302.126
303.16
304.333
305.595
306.894
308.204
309.507
310.788
312.037
313.246
314.412
315.529
316.596
317.61
318.568
319.465
320.298
321.062
321.75
322.357
322.878
323.305
323.635
323.862
323.982
323.992
323.888
323.669
323.337
322.897
322.375
321.826
300.425
301.114
302.127
303.418
304.9
306.493
308.137
309.79
311.425
313.022
314.569
316.053
317.466
318.8
320.047
321.201
322.255
323.204
324.044
324.77
325.377
325.862
326.222
326.455
326.557
326.529
326.369
326.078
325.657
325.106
324.427
323.628
322.725
321.759
320.808
300
300.001
300.001
300.002
300.003
300.005
300.007
300.011
300.018
300.029
300.048
300.08
300.132
300.212
300.328
300.489
300.7
300.964
301.282
301.648
302.058
302.506
302.984
303.486
304.005
304.535
305.071
305.607
306.14
306.664
307.175
307.67
308.146
308.599
309.021
300.059
300.13
300.239
300.409
300.665
301.029
301.505
302.083
302.747
303.476
304.25
305.053
305.87
306.69
307.503
308.3
309.075
309.821
310.534
311.209
311.84
312.425
312.96
313.441
313.865
314.23
314.534
314.773
314.948
315.056
315.098
315.074
314.983
314.83
314.618
301.327
304.025
307.383
310.954
314.528
318.005
321.332
324.485
327.454
330.232
332.817
335.204
337.391
339.377
341.16
342.739
344.111
345.27
346.211
346.926
347.407
347.646
347.634
347.366
346.836
346.041
344.981
343.657
342.071
340.228
338.14
335.833
333.375
330.937
328.921
300.021
300.044
300.078
300.128
300.208
300.333
300.522
300.786
301.129
301.548
302.032
302.569
303.146
303.752
304.375
305.006
305.638
306.264
306.878
307.474
308.049
308.597
309.114
309.599
310.047
310.456
310.824
311.148
311.427
311.659
311.843
311.98
312.067
312.106
312.094
300
300
300
300
300
300
300
300
300
300.001
300.001
300.001
300.002
300.003
300.004
300.007
300.011
300.017
300.028
300.044
300.068
300.103
300.152
300.219
300.307
300.419
300.558
300.724
300.918
301.137
301.379
301.641
301.92
302.211
302.505
300.202
300.494
300.946
301.584
302.405
303.381
304.468
305.625
306.821
308.029
309.233
310.417
311.57
312.683
313.748
314.758
315.707
316.589
317.399
318.133
318.786
319.354
319.835
320.224
320.52
320.72
320.823
320.827
320.731
320.536
320.243
319.853
319.374
318.824
318.235
300.03
300.064
300.117
300.198
300.325
300.519
300.794
301.155
301.598
302.114
302.689
303.31
303.963
304.636
305.319
306.004
306.681
307.345
307.99
308.612
309.205
309.767
310.293
310.781
311.228
311.631
311.99
312.301
312.563
312.775
312.935
313.044
313.101
313.107
313.064
301.023
302.809
305.145
307.757
310.461
313.145
315.755
318.262
320.651
322.914
325.045
327.042
328.902
330.625
332.21
333.655
334.956
336.109
337.106
337.937
338.595
339.069
339.351
339.432
339.305
338.965
338.41
337.637
336.646
335.44
334.024
332.414
330.653
328.855
327.288
301.155
303.624
306.838
310.325
313.823
317.229
320.495
323.597
326.522
329.262
331.81
334.16
336.306
338.239
339.956
341.449
342.714
343.747
344.542
345.096
345.408
345.473
345.293
344.865
344.194
343.281
342.132
340.753
339.147
337.322
335.289
333.078
330.752
328.46
326.529
300.023
300.048
300.084
300.139
300.224
300.359
300.56
300.838
301.196
301.629
302.127
302.677
303.267
303.884
304.517
305.159
305.8
306.433
307.053
307.656
308.235
308.787
309.309
309.796
310.248
310.659
311.029
311.356
311.636
311.869
312.055
312.192
312.281
312.32
312.31
300.002
300.005
300.009
300.016
300.026
300.043
300.074
300.129
300.217
300.352
300.542
300.794
301.111
301.492
301.934
302.431
302.978
303.568
304.192
304.844
305.516
306.204
306.899
307.598
308.294
308.983
309.66
310.321
310.959
311.572
312.154
312.703
313.214
313.686
314.111
300
300.001
300.001
300.002
300.003
300.004
300.006
300.009
300.014
300.022
300.036
300.059
300.097
300.154
300.237
300.351
300.498
300.68
300.894
301.137
301.406
301.697
302.008
302.336
302.677
303.03
303.392
303.76
304.131
304.503
304.873
305.238
305.595
305.942
306.27
300.303
300.757
301.438
302.352
303.462
304.714
306.052
307.433
308.825
310.206
311.56
312.874
314.139
315.347
316.489
317.56
318.553
319.463
320.285
321.015
321.648
322.181
322.611
322.935
323.15
323.255
323.249
323.131
322.901
322.56
322.108
321.551
320.899
320.177
319.437
300.281
300.7
301.341
302.207
303.264
304.46
305.744
307.073
308.418
309.756
311.073
312.355
313.592
314.775
315.897
316.952
317.933
318.835
319.655
320.387
321.029
321.577
322.027
322.378
322.627
322.773
322.813
322.746
322.573
322.294
321.908
321.419
320.835
320.181
319.509
300.003
300.005
300.009
300.014
300.021
300.032
300.049
300.079
300.127
300.205
300.321
300.484
300.699
300.964
301.275
301.625
302.007
302.414
302.837
303.271
303.709
304.147
304.581
305.007
305.421
305.821
306.205
306.57
306.915
307.238
307.538
307.813
308.063
308.287
308.476
300.447
301.142
302.148
303.422
304.882
306.456
308.083
309.723
311.349
312.939
314.48
315.959
317.368
318.698
319.944
321.098
322.155
323.111
323.96
324.699
325.324
325.832
326.219
326.483
326.622
326.633
326.516
326.27
325.896
325.393
324.763
324.013
323.157
322.233
321.329
300
300
300
300
300
300
300
300
300
300
300
300
300
300.001
300.001
300.001
300.002
300.003
300.006
300.009
300.015
300.023
300.036
300.056
300.083
300.122
300.173
300.241
300.328
300.435
300.564
300.715
300.888
301.082
301.291
300.467
301.311
302.56
304.097
305.813
307.616
309.444
311.256
313.03
314.747
316.397
317.97
319.457
320.852
322.147
323.339
324.42
325.388
326.238
326.967
327.572
328.048
328.394
328.606
328.682
328.621
328.42
328.08
327.6
326.982
326.226
325.342
324.345
323.284
322.263
300.615
301.684
303.188
304.976
306.917
308.917
310.914
312.868
314.763
316.589
318.339
320.009
321.597
323.102
324.522
325.857
327.101
328.248
329.291
330.221
331.027
331.701
332.232
332.612
332.833
332.888
332.772
332.481
332.012
331.366
330.544
329.555
328.422
327.208
326.078
300.958
302.353
304.137
306.183
308.364
310.588
312.796
314.953
317.037
319.034
320.932
322.723
324.397
325.947
327.366
328.647
329.784
330.773
331.609
332.287
332.803
333.153
333.336
333.348
333.189
332.859
332.359
331.69
330.856
329.858
328.7
327.397
325.979
324.522
323.192
301.148
303.121
305.599
308.325
311.124
313.895
316.585
319.166
321.624
323.952
326.147
328.209
330.14
331.939
333.607
335.139
336.53
337.771
338.852
339.76
340.484
341.013
341.334
341.439
341.32
340.969
340.384
339.562
338.504
337.213
335.697
333.973
332.087
330.161
328.495
300.073
300.168
300.325
300.568
300.927
301.414
302.018
302.718
303.491
304.311
305.16
306.024
306.894
307.76
308.618
309.464
310.297
311.112
311.908
312.682
313.431
314.149
314.834
315.479
316.079
316.631
317.127
317.564
317.937
318.242
318.474
318.632
318.715
318.729
318.686
300.017
300.037
300.068
300.118
300.199
300.331
300.53
300.808
301.166
301.599
302.096
302.644
303.23
303.843
304.472
305.111
305.754
306.396
307.034
307.666
308.289
308.9
309.497
310.076
310.634
311.168
311.675
312.15
312.59
312.992
313.351
313.666
313.934
314.154
314.323
300
300.001
300.002
300.003
300.004
300.006
300.009
300.013
300.021
300.035
300.058
300.096
300.156
300.246
300.374
300.549
300.775
301.054
301.385
301.765
302.187
302.645
303.132
303.642
304.167
304.704
305.245
305.786
306.322
306.85
307.364
307.862
308.34
308.794
309.215
300.291
300.701
301.309
302.132
303.145
304.305
305.561
306.87
308.199
309.527
310.836
312.112
313.346
314.527
315.649
316.705
317.688
318.593
319.415
320.15
320.794
321.342
321.791
322.139
322.383
322.52
322.55
322.472
322.285
321.989
321.586
321.079
320.477
319.805
319.109
300.334
300.85
301.625
302.644
303.862
305.214
306.645
308.109
309.576
311.026
312.442
313.813
315.128
316.38
317.559
318.661
319.68
320.609
321.445
322.184
322.82
323.351
323.774
324.084
324.281
324.363
324.327
324.175
323.905
323.518
323.016
322.403
321.69
320.906
320.115
300.08
300.175
300.324
300.552
300.888
301.345
301.922
302.601
303.36
304.177
305.032
305.907
306.788
307.665
308.527
309.368
310.182
310.962
311.705
312.406
313.064
313.675
314.235
314.743
315.196
315.591
315.926
316.198
316.406
316.547
316.621
316.626
316.563
316.438
316.263
300.179
300.427
300.821
301.383
302.119
303.003
303.998
305.067
306.179
307.31
308.443
309.562
310.657
311.718
312.738
313.708
314.625
315.481
316.274
316.998
317.651
318.229
318.729
319.149
319.485
319.737
319.902
319.979
319.966
319.862
319.669
319.386
319.019
318.583
318.109
300
300
300
300
300
300
300
300
300
300
300
300
300
300
300
300
300
300
300.001
300.001
300.002
300.003
300.005
300.008
300.012
300.018
300.028
300.042
300.062
300.089
300.125
300.173
300.233
300.306
300.39
300.613
301.623
303.023
304.698
306.535
308.438
310.347
312.225
314.054
315.822
317.52
319.146
320.7
322.183
323.593
324.929
326.186
327.356
328.431
329.401
330.255
330.983
331.575
332.02
332.311
332.439
332.399
332.186
331.8
331.238
330.502
329.6
328.548
327.405
326.326
300.67
301.786
303.307
305.096
307.034
309.024
311.011
312.962
314.855
316.68
318.43
320.104
321.7
323.22
324.661
326.022
327.297
328.479
329.559
330.527
331.372
332.083
332.65
333.062
333.312
333.393
333.299
333.026
332.571
331.931
331.103
330.095
328.931
327.69
326.554
300.045
300.099
300.185
300.319
300.528
300.83
301.237
301.743
302.336
302.998
303.71
304.456
305.221
305.994
306.765
307.525
308.268
308.988
309.681
310.343
310.971
311.562
312.113
312.622
313.087
313.506
313.876
314.195
314.461
314.671
314.826
314.922
314.96
314.944
314.879
300.724
301.949
303.634
305.602
307.707
309.857
311.991
314.079
316.1
318.038
319.883
321.625
323.256
324.769
326.157
327.415
328.538
329.521
330.36
331.052
331.593
331.979
332.209
332.281
332.191
331.941
331.53
330.958
330.227
329.338
328.298
327.115
325.817
324.47
323.231
300
300.001
300.001
300.001
300.002
300.003
300.004
300.006
300.008
300.012
300.019
300.029
300.047
300.075
300.118
300.18
300.266
300.38
300.524
300.699
300.901
301.13
301.379
301.645
301.924
302.21
302.501
302.793
303.083
303.37
303.651
303.925
304.19
304.445
304.684
300.06
300.134
300.252
300.437
300.715
301.104
301.606
302.211
302.897
303.645
304.435
305.25
306.076
306.902
307.718
308.517
309.293
310.038
310.75
311.423
312.054
312.64
313.177
313.664
314.097
314.475
314.796
315.058
315.258
315.396
315.471
315.482
315.43
315.32
315.159
300.133
300.316
300.602
301.026
301.605
302.334
303.188
304.133
305.137
306.175
307.227
308.277
309.312
310.324
311.303
312.241
313.134
313.974
314.757
315.478
316.133
316.719
317.231
317.667
318.023
318.298
318.489
318.595
318.614
318.547
318.393
318.153
317.833
317.442
317
300.001
300.002
300.004
300.006
300.008
300.012
300.018
300.029
300.047
300.076
300.125
300.2
300.309
300.459
300.651
300.885
301.159
301.467
301.802
302.161
302.539
302.931
303.333
303.744
304.16
304.579
304.998
305.415
305.827
306.23
306.623
307.002
307.365
307.71
308.028
300.179
300.441
300.859
301.46
302.242
303.176
304.219
305.332
306.482
307.644
308.802
309.943
311.056
312.134
313.169
314.157
315.094
315.975
316.797
317.558
318.254
318.882
319.437
319.918
320.319
320.637
320.87
321.013
321.066
321.024
320.888
320.658
320.337
319.942
319.506
300.888
302.541
304.736
307.213
309.78
312.337
314.835
317.245
319.551
321.741
323.806
325.738
327.531
329.176
330.668
332.001
333.169
334.166
334.99
335.635
336.098
336.376
336.467
336.37
336.085
335.612
334.954
334.113
333.091
331.893
330.526
329.005
327.366
325.7
324.21
300
300
300
300
300
300
300.001
300.001
300.001
300.002
300.002
300.004
300.006
300.009
300.015
300.024
300.039
300.062
300.097
300.148
300.22
300.317
300.444
300.602
300.794
301.019
301.274
301.557
301.864
302.19
302.531
302.881
303.238
303.596
303.946
300.001
300.003
300.004
300.007
300.01
300.014
300.021
300.032
300.051
300.082
300.132
300.21
300.322
300.476
300.672
300.91
301.186
301.493
301.826
302.178
302.543
302.917
303.295
303.673
304.047
304.415
304.772
305.116
305.446
305.758
306.052
306.326
306.578
306.807
307.007
300.008
300.016
300.028
300.045
300.07
300.11
300.175
300.278
300.43
300.64
300.91
301.239
301.62
302.044
302.504
302.989
303.492
304.005
304.522
305.037
305.545
306.041
306.52
306.981
307.418
307.83
308.214
308.568
308.89
309.178
309.432
309.649
309.83
309.974
310.075
300.263
300.669
301.289
302.126
303.148
304.309
305.56
306.859
308.177
309.49
310.784
312.045
313.265
314.433
315.542
316.585
317.557
318.453
319.267
319.996
320.635
321.18
321.63
321.981
322.23
322.376
322.418
322.355
322.186
321.912
321.533
321.053
320.48
319.837
319.171
300.957
302.69
304.94
307.45
310.057
312.653
315.182
317.614
319.936
322.137
324.212
326.156
327.966
329.639
331.172
332.564
333.812
334.912
335.856
336.64
337.255
337.694
337.95
338.015
337.884
337.553
337.019
336.28
335.338
334.194
332.853
331.33
329.664
327.958
326.453
300.071
300.165
300.321
300.565
300.929
301.422
302.035
302.745
303.527
304.353
305.208
306.077
306.952
307.824
308.689
309.544
310.386
311.214
312.024
312.813
313.578
314.313
315.016
315.679
316.298
316.867
317.381
317.834
318.223
318.541
318.787
318.956
319.05
319.072
319.037
300.192
300.47
300.913
301.539
302.345
303.299
304.359
305.482
306.637
307.802
308.959
310.099
311.211
312.29
313.331
314.332
315.288
316.197
317.055
317.86
318.606
319.29
319.907
320.45
320.916
321.299
321.594
321.799
321.908
321.919
321.831
321.642
321.356
320.992
320.586
300.239
300.59
301.136
301.883
302.816
303.891
305.06
306.281
307.524
308.768
309.996
311.199
312.365
313.49
314.569
315.596
316.569
317.485
318.341
319.132
319.855
320.506
321.08
321.571
321.976
322.291
322.51
322.631
322.651
322.566
322.376
322.082
321.689
321.219
320.716
300.168
300.406
300.779
301.316
302.025
302.888
303.869
304.93
306.039
307.171
308.306
309.429
310.529
311.596
312.622
313.6
314.524
315.387
316.186
316.915
317.57
318.147
318.644