/*--------------------------------*- C++ -*----------------------------------*\
| =========                 |                                                 |
| \\      /  F ield         | OpenFOAM: The Open Source CFD Toolbox           |
|  \\    /   O peration     | Version:  2.4.x                                 |
|   \\  /    A nd           | Web:      www.OpenFOAM.org                      |
|    \\/     M anipulation  |                                                 |
\*---------------------------------------------------------------------------*/
FoamFile
{
    version     2.0;
    format      ascii;
    class       volVectorField;
    location    "9990/coolant";
    object      U;
}
// * * * * * * * * * * * * * * * * * * * * * * * * * * * * * * * * * * * * * //

dimensions      [0 1 -1 0 0 0 0];

internalField   nonuniform List<vector> 
109760
(
(0.00191264 0.00213055 -0.10301)
(0.000871498 0.00101558 -0.107413)
(0.000658628 0.000779497 -0.109772)
(0.000531537 0.000650986 -0.111378)
(0.00043194 0.000543138 -0.112729)
(0.00037337 0.000478939 -0.113869)
(0.0003345 0.000436931 -0.114809)
(0.000303467 0.000403403 -0.115562)
(0.000276767 0.000374627 -0.116132)
(0.000252534 0.000348712 -0.116519)
(0.000229537 0.000324329 -0.116732)
(0.000207265 0.000300916 -0.116792)
(0.000185674 0.000278451 -0.116731)
(0.000164966 0.000257167 -0.116586)
(0.000145441 0.000237349 -0.116393)
(0.000127367 0.000219188 -0.116185)
(0.000110918 0.000202757 -0.115984)
(9.61564e-05 0.000188016 -0.115808)
(8.30302e-05 0.000174834 -0.115667)
(7.14243e-05 0.000163051 -0.115565)
(6.11887e-05 0.0001525 -0.115504)
(5.21633e-05 0.000143027 -0.115485)
(4.41877e-05 0.000134483 -0.115505)
(3.71097e-05 0.000126722 -0.115561)
(3.07887e-05 0.000119606 -0.11565)
(2.51105e-05 0.000112997 -0.115768)
(1.99762e-05 0.00010676 -0.115913)
(1.5331e-05 0.000100816 -0.11608)
(1.11419e-05 9.50634e-05 -0.116267)
(7.38763e-06 8.95592e-05 -0.116469)
(3.95502e-06 8.41522e-05 -0.116683)
(7.89234e-07 7.90481e-05 -0.116906)
(-2.8322e-06 7.28123e-05 -0.117138)
(-7.32884e-06 6.68473e-05 -0.117367)
(-2.11513e-05 2.90019e-05 -0.117639)
(0.00262844 0.00286094 -0.102088)
(0.000976085 0.00130904 -0.105439)
(0.000699495 0.00095761 -0.105794)
(0.000491479 0.000736043 -0.105288)
(0.000354176 0.000568541 -0.104326)
(0.000266419 0.000455369 -0.10306)
(0.000202159 0.000373768 -0.101662)
(0.000151747 0.000311156 -0.10028)
(0.000112009 0.000263217 -0.0990105)
(8.05524e-05 0.000226943 -0.097898)
(5.54036e-05 0.000199748 -0.0969569)
(3.51288e-05 0.000179619 -0.0961839)
(1.85599e-05 0.000164983 -0.0955652)
(4.83904e-06 0.000154575 -0.095084)
(-6.58888e-06 0.000147317 -0.0947231)
(-1.61279e-05 0.000142299 -0.0944661)
(-2.41039e-05 0.000138823 -0.0942984)
(-3.07694e-05 0.000136327 -0.0942068)
(-3.63137e-05 0.000134381 -0.0941795)
(-4.08919e-05 0.000132669 -0.0942063)
(-4.46388e-05 0.000130966 -0.0942782)
(-4.76719e-05 0.000129129 -0.0943875)
(-5.00859e-05 0.000127076 -0.0945273)
(-5.19559e-05 0.000124765 -0.0946918)
(-5.33486e-05 0.000122184 -0.094876)
(-5.4316e-05 0.000119318 -0.0950756)
(-5.49092e-05 0.000116143 -0.0952869)
(-5.51664e-05 0.00011268 -0.0955066)
(-5.51177e-05 0.000108898 -0.0957316)
(-5.48064e-05 0.000104998 -0.0959589)
(-5.42544e-05 0.00010093 -0.0961861)
(-5.35459e-05 9.7245e-05 -0.0964123)
(-5.22791e-05 9.16298e-05 -0.0966382)
(-5.27236e-05 8.97578e-05 -0.0968574)
(-3.91579e-05 3.74543e-05 -0.0971051)
(0.00150872 0.0023046 -0.0778481)
(0.000401976 0.000620549 -0.0645362)
(0.000211802 0.00025706 -0.054568)
(0.000136586 9.65864e-05 -0.0496588)
(9.26733e-05 4.37639e-05 -0.0470695)
(8.19485e-05 1.77302e-05 -0.0455759)
(8.30667e-05 1.68657e-06 -0.0446812)
(8.74172e-05 -8.71445e-06 -0.044141)
(9.3597e-05 -1.60264e-05 -0.0438177)
(0.00010148 -2.16704e-05 -0.0436309)
(0.000110927 -2.63763e-05 -0.0435301)
(0.000121438 -3.03966e-05 -0.0434801)
(0.000132179 -3.37623e-05 -0.0434549)
(0.000142129 -3.63987e-05 -0.0434342)
(0.000150388 -3.82167e-05 -0.0434029)
(0.000156404 -3.91995e-05 -0.0433507)
(0.000159983 -3.94054e-05 -0.0432716)
(0.000161214 -3.89471e-05 -0.0431633)
(0.000160387 -3.79688e-05 -0.0430265)
(0.000157886 -3.66194e-05 -0.0428639)
(0.000154111 -3.50339e-05 -0.0426792)
(0.000149443 -3.33271e-05 -0.042477)
(0.00014421 -3.15876e-05 -0.0422616)
(0.000138674 -2.98795e-05 -0.0420374)
(0.00013304 -2.82403e-05 -0.0418079)
(0.000127471 -2.66938e-05 -0.0415764)
(0.000122049 -2.52484e-05 -0.0413451)
(0.000116823 -2.39006e-05 -0.0411161)
(0.00011174 -2.26697e-05 -0.0408909)
(0.000106764 -2.15691e-05 -0.0406713)
(0.000101578 -2.05843e-05 -0.0404586)
(9.70673e-05 -1.98788e-05 -0.0402575)
(8.78635e-05 -1.82334e-05 -0.0400626)
(9.15903e-05 -1.84098e-05 -0.0399062)
(1.48421e-05 2.87537e-06 -0.039669)
(0.00267571 0.00278657 -0.0945473)
(0.000924056 0.00098803 -0.0915444)
(0.000533659 0.000577515 -0.0860172)
(0.000294837 0.000347543 -0.0814561)
(0.00016797 0.000214929 -0.0780708)
(0.000101411 0.000143231 -0.0756063)
(6.2772e-05 0.000101987 -0.0738131)
(3.83792e-05 7.59778e-05 -0.0725145)
(2.24913e-05 5.92262e-05 -0.071577)
(1.1779e-05 4.8454e-05 -0.0709034)
(4.16112e-06 4.15995e-05 -0.0704279)
(-1.56996e-06 3.7402e-05 -0.0701023)
(-6.07834e-06 3.50376e-05 -0.0698934)
(-9.76881e-06 3.39222e-05 -0.069778)
(-1.28658e-05 3.36247e-05 -0.069738)
(-1.54831e-05 3.38162e-05 -0.0697597)
(-1.7698e-05 3.42575e-05 -0.0698319)
(-1.95609e-05 3.47843e-05 -0.0699453)
(-2.11068e-05 3.52774e-05 -0.0700924)
(-2.23636e-05 3.56559e-05 -0.0702667)
(-2.33559e-05 3.58679e-05 -0.0704632)
(-2.41107e-05 3.58925e-05 -0.0706773)
(-2.46523e-05 3.57304e-05 -0.0709055)
(-2.49981e-05 3.53929e-05 -0.0711445)
(-2.51664e-05 3.48992e-05 -0.0713918)
(-2.51795e-05 3.42565e-05 -0.0716451)
(-2.50822e-05 3.34539e-05 -0.0719025)
(-2.4933e-05 3.25078e-05 -0.0721626)
(-2.47649e-05 3.13662e-05 -0.072424)
(-2.46075e-05 3.01582e-05 -0.0726856)
(-2.43556e-05 2.88384e-05 -0.0729459)
(-2.3974e-05 2.77862e-05 -0.0732041)
(-2.29953e-05 2.56747e-05 -0.0734592)
(-2.33422e-05 2.60795e-05 -0.0736991)
(-1.6835e-05 -5.04014e-06 -0.0739844)
(0.0020753 0.00194953 -0.0762903)
(0.000588595 0.000485518 -0.0623726)
(0.000239678 0.000205229 -0.05269)
(0.000125508 7.48545e-05 -0.0478844)
(6.10218e-05 3.7668e-05 -0.0453537)
(4.02752e-05 1.83958e-05 -0.0438993)
(3.71975e-05 4.35943e-06 -0.0430194)
(3.92539e-05 -5.74226e-06 -0.0424776)
(4.40831e-05 -1.36102e-05 -0.0421502)
(5.0695e-05 -2.03057e-05 -0.0419639)
(5.84237e-05 -2.63256e-05 -0.0418743)
(6.69048e-05 -3.19547e-05 -0.0418544)
(7.57619e-05 -3.72857e-05 -0.0418863)
(8.45691e-05 -4.22829e-05 -0.0419576)
(9.28849e-05 -4.68418e-05 -0.042059)
(0.000100325 -5.08448e-05 -0.0421828)
(0.000106609 -5.41995e-05 -0.0423226)
(0.000111589 -5.68601e-05 -0.0424723)
(0.000115209 -5.8813e-05 -0.042627)
(0.000117502 -6.00818e-05 -0.0427821)
(0.000118558 -6.07172e-05 -0.0429344)
(0.000118505 -6.07806e-05 -0.043081)
(0.000117497 -6.03445e-05 -0.0432199)
(0.000115693 -5.94864e-05 -0.0433499)
(0.000113248 -5.82785e-05 -0.0434703)
(0.000110306 -5.67901e-05 -0.0435809)
(0.000106981 -5.50822e-05 -0.0436818)
(0.000103407 -5.32247e-05 -0.0437736)
(9.96662e-05 -5.12943e-05 -0.043857)
(9.58986e-05 -4.93767e-05 -0.0439332)
(9.19205e-05 -4.74246e-05 -0.0440034)
(8.83933e-05 -4.57066e-05 -0.0440703)
(8.00515e-05 -4.16736e-05 -0.0441332)
(8.25073e-05 -4.21945e-05 -0.0441957)
(-1.0554e-05 5.6202e-06 -0.04423)
(0.00272099 0.00273999 -0.102173)
(0.00116785 0.00112181 -0.105584)
(0.000838601 0.000814725 -0.106114)
(0.000618435 0.000605297 -0.105784)
(0.000461999 0.000454906 -0.104991)
(0.000358985 0.000356076 -0.103861)
(0.000283991 0.000283735 -0.102548)
(0.00022532 0.000226551 -0.101205)
(0.000179418 0.000181425 -0.0999384)
(0.000143838 0.000146196 -0.0988068)
(0.000116345 0.000118796 -0.0978348)
(9.51299e-05 9.75238e-05 -0.0970252)
(7.87554e-05 8.09908e-05 -0.0963693)
(6.60611e-05 6.80922e-05 -0.095853)
(5.6153e-05 5.79708e-05 -0.0954605)
(4.83581e-05 4.99539e-05 -0.0951759)
(4.21526e-05 4.353e-05 -0.0949849)
(3.7138e-05 3.83152e-05 -0.0948743)
(3.30217e-05 3.40107e-05 -0.0948323)
(2.95952e-05 3.03893e-05 -0.0948488)
(2.67065e-05 2.72829e-05 -0.0949148)
(2.42417e-05 2.45722e-05 -0.0950225)
(2.21104e-05 2.21702e-05 -0.095165)
(2.02419e-05 2.00114e-05 -0.0953365)
(1.85744e-05 1.80427e-05 -0.0955321)
(1.70537e-05 1.6211e-05 -0.0957477)
(1.56171e-05 1.44607e-05 -0.0959794)
(1.42294e-05 1.2775e-05 -0.096224)
(1.28628e-05 1.11012e-05 -0.0964781)
(1.1522e-05 9.53175e-06 -0.0967388)
(1.01697e-05 8.00216e-06 -0.0970035)
(8.87525e-06 6.71406e-06 -0.0972714)
(6.80876e-06 4.90974e-06 -0.0975432)
(4.63815e-06 3.0312e-06 -0.0978098)
(-1.5234e-05 -1.52162e-05 -0.0981193)
(0.00113302 0.000233358 -0.102418)
(0.000694264 0.000116655 -0.106484)
(0.000510089 8.77643e-05 -0.109186)
(0.000447897 7.63986e-05 -0.111014)
(0.000383529 6.3658e-05 -0.112614)
(0.000343212 5.62055e-05 -0.114069)
(0.000319565 5.18285e-05 -0.115398)
(0.000302554 4.85687e-05 -0.116642)
(0.000289776 4.60318e-05 -0.117826)
(0.00028022 4.40419e-05 -0.118964)
(0.000272978 4.24273e-05 -0.120067)
(0.000267458 4.10748e-05 -0.121142)
(0.000263259 3.99125e-05 -0.122194)
(0.000260061 3.88887e-05 -0.12323)
(0.000257588 3.79694e-05 -0.12425)
(0.000255607 3.71367e-05 -0.125259)
(0.000253925 3.63862e-05 -0.126256)
(0.000252391 3.57214e-05 -0.127244)
(0.000250889 3.5148e-05 -0.12822)
(0.00024934 3.46698e-05 -0.129185)
(0.000247697 3.42837e-05 -0.130138)
(0.000245938 3.39752e-05 -0.131076)
(0.000244057 3.37136e-05 -0.131997)
(0.000242049 3.34499e-05 -0.132899)
(0.000239905 3.31162e-05 -0.133778)
(0.0002376 3.26301e-05 -0.134631)
(0.000235083 3.19036e-05 -0.135452)
(0.000232296 3.08606e-05 -0.136238)
(0.000229153 2.94396e-05 -0.136983)
(0.00022559 2.76279e-05 -0.137683)
(0.000221449 2.54208e-05 -0.138332)
(0.000216717 2.28775e-05 -0.138928)
(0.000210071 1.99375e-05 -0.139467)
(0.00020082 1.62861e-05 -0.139935)
(0.000134179 7.44267e-06 -0.140389)
(0.00293426 0.00270457 -0.101266)
(0.00142314 0.000940595 -0.103807)
(0.00102364 0.000656139 -0.103018)
(0.000770594 0.000432466 -0.101446)
(0.000580383 0.000294381 -0.0996073)
(0.000454239 0.000208655 -0.0977158)
(0.000367526 0.000147292 -0.0959377)
(0.000305292 0.000100628 -0.0943742)
(0.000261006 6.47659e-05 -0.0930574)
(0.000230075 3.6875e-05 -0.0919775)
(0.000209002 1.4801e-05 -0.0911106)
(0.000195288 -3.02026e-06 -0.0904274)
(0.000187086 -1.77369e-05 -0.0899011)
(0.000182847 -3.01531e-05 -0.0895085)
(0.000181331 -4.07578e-05 -0.0892295)
(0.000181556 -4.98318e-05 -0.0890465)
(0.000182715 -5.75558e-05 -0.0889436)
(0.00018418 -6.40589e-05 -0.0889069)
(0.000185481 -6.94453e-05 -0.0889244)
(0.000186303 -7.38067e-05 -0.0889858)
(0.000186454 -7.7239e-05 -0.0890817)
(0.000185822 -7.98242e-05 -0.0892043)
(0.00018438 -8.16287e-05 -0.0893468)
(0.00018216 -8.27192e-05 -0.0895031)
(0.000179233 -8.31579e-05 -0.0896686)
(0.000175686 -8.3008e-05 -0.0898391)
(0.000171586 -8.23466e-05 -0.0900116)
(0.000167024 -8.12481e-05 -0.0901838)
(0.000162026 -7.98209e-05 -0.0903537)
(0.000156732 -7.81304e-05 -0.09052)
(0.0001511 -7.62335e-05 -0.0906815)
(0.000145724 -7.41729e-05 -0.0908379)
(0.000137303 -7.07126e-05 -0.0909887)
(0.000135311 -6.92027e-05 -0.091131)
(6.40325e-05 -3.71735e-05 -0.0912856)
(0.00148962 0.0011561 -0.102662)
(0.00081767 0.000553675 -0.106886)
(0.000613422 0.000419626 -0.109518)
(0.000528528 0.000358305 -0.111327)
(0.000448081 0.000295266 -0.112913)
(0.000399823 0.000258812 -0.114348)
(0.000370784 0.000237058 -0.115656)
(0.00034959 0.000220908 -0.116874)
(0.000333456 0.000208379 -0.118026)
(0.000321108 0.000198537 -0.119124)
(0.000311484 0.000190535 -0.120174)
(0.00030389 0.000183802 -0.12118)
(0.000297818 0.000177936 -0.122142)
(0.000292786 0.000172599 -0.123058)
(0.000288293 0.000167479 -0.123924)
(0.00028383 0.000162281 -0.124733)
(0.000278923 0.000156736 -0.12548)
(0.000273196 0.000150627 -0.126158)
(0.000266419 0.000143813 -0.126762)
(0.000258526 0.000136249 -0.127292)
(0.000249598 0.000127981 -0.127751)
(0.000239817 0.000119128 -0.128145)
(0.000229412 0.000109846 -0.128483)
(0.000218631 0.00010031 -0.128777)
(0.000207701 9.06911e-05 -0.129038)
(0.000196806 8.11491e-05 -0.129276)
(0.000186082 7.18185e-05 -0.129502)
(0.000175652 6.28363e-05 -0.129721)
(0.000165571 5.42902e-05 -0.129938)
(0.000155896 4.63179e-05 -0.130156)
(0.000146551 3.88741e-05 -0.130376)
(0.000137617 3.20158e-05 -0.130598)
(0.000127781 2.51097e-05 -0.130822)
(0.000117484 1.7077e-05 -0.131037)
(6.89193e-05 -2.44176e-06 -0.131292)
(0.0030735 0.000917035 -0.0927166)
(0.00100034 0.000346171 -0.08858)
(0.000558386 0.000227047 -0.0815877)
(0.000287283 0.000155008 -0.0765942)
(0.000159878 0.00011332 -0.0731693)
(8.90499e-05 9.45009e-05 -0.0708011)
(4.51105e-05 8.66823e-05 -0.0691545)
(1.68126e-05 8.43318e-05 -0.0680033)
(-2.20161e-06 8.53446e-05 -0.0671888)
(-1.53885e-05 8.85512e-05 -0.066606)
(-2.45007e-05 9.31841e-05 -0.0661744)
(-3.05192e-05 9.87648e-05 -0.0658387)
(-3.40296e-05 0.000104671 -0.0655536)
(-3.54568e-05 0.000110145 -0.0652851)
(-3.52179e-05 0.000114586 -0.0650098)
(-3.3731e-05 0.000117625 -0.0647134)
(-3.13998e-05 0.00011914 -0.0643889)
(-2.85871e-05 0.000119207 -0.0640345)
(-2.55905e-05 0.000118021 -0.0636523)
(-2.26259e-05 0.000115827 -0.0632462)
(-1.9839e-05 0.000112885 -0.062822)
(-1.73136e-05 0.00010944 -0.0623857)
(-1.50885e-05 0.000105686 -0.0619423)
(-1.31775e-05 0.000101772 -0.0614965)
(-1.15637e-05 9.78144e-05 -0.0610523)
(-1.02063e-05 9.38886e-05 -0.0606131)
(-9.04932e-06 9.00508e-05 -0.0601813)
(-8.01923e-06 8.63259e-05 -0.0597589)
(-7.09954e-06 8.2726e-05 -0.0593471)
(-6.29551e-06 7.93201e-05 -0.0589473)
(-5.73618e-06 7.58969e-05 -0.0585596)
(-5.60323e-06 7.31018e-05 -0.0581881)
(-5.79003e-06 6.76567e-05 -0.0578227)
(-6.16995e-06 6.89124e-05 -0.0575121)
(8.04781e-06 3.04544e-05 -0.0570928)
(0.000871309 0.00318345 -0.0933615)
(0.000346924 0.00101913 -0.0896437)
(0.000237053 0.000561553 -0.0829293)
(0.000167172 0.000286446 -0.0780417)
(0.000124133 0.000158115 -0.0746453)
(0.00010392 8.67965e-05 -0.072267)
(9.49256e-05 4.28387e-05 -0.070588)
(9.12426e-05 1.46842e-05 -0.0693956)
(9.08012e-05 -4.08171e-06 -0.0685418)
(9.24684e-05 -1.69698e-05 -0.0679215)
(9.55853e-05 -2.57697e-05 -0.0674601)
(9.97659e-05 -3.14036e-05 -0.0670981)
(0.000104482 -3.45011e-05 -0.0667909)
(0.000109036 -3.55244e-05 -0.0665046)
(0.000112825 -3.49016e-05 -0.0662152)
(0.000115483 -3.3069e-05 -0.0659075)
(0.000116867 -3.04467e-05 -0.0655735)
(0.000117009 -2.74059e-05 -0.0652109)
(0.00011605 -2.42452e-05 -0.0648214)
(0.000114184 -2.11797e-05 -0.0644089)
(0.000111612 -1.83487e-05 -0.0639788)
(0.000108531 -1.58245e-05 -0.0635365)
(0.000105113 -1.36325e-05 -0.0630874)
(0.000101505 -1.17629e-05 -0.0626362)
(9.78281e-05 -1.01789e-05 -0.062187)
(9.41883e-05 -8.84077e-06 -0.0617428)
(9.06371e-05 -7.72602e-06 -0.0613064)
(8.71495e-05 -6.82101e-06 -0.0608796)
(8.3665e-05 -6.18205e-06 -0.060464)
(8.0037e-05 -5.84751e-06 -0.0600611)
(7.61064e-05 -5.7962e-06 -0.0596704)
(7.24639e-05 -5.87892e-06 -0.0592955)
(6.65177e-05 -5.38215e-06 -0.0589252)
(6.80315e-05 -3.56497e-06 -0.0586066)
(3.16926e-05 9.89666e-06 -0.0581818)
(0.0030427 0.00130728 -0.0906699)
(0.000971452 0.000468508 -0.0851149)
(0.000512829 0.0002967 -0.0773429)
(0.000247318 0.000198562 -0.0720656)
(0.000129822 0.000142102 -0.0685996)
(6.77228e-05 0.00011823 -0.0662862)
(3.0219e-05 0.00010939 -0.0647326)
(6.67102e-06 0.000107473 -0.063682)
(-8.75766e-06 0.000109673 -0.062962)
(-1.94407e-05 0.000114696 -0.0624634)
(-2.71483e-05 0.000121727 -0.0621097)
(-3.26694e-05 0.000130099 -0.0618456)
(-3.63492e-05 0.0001389 -0.0616301)
(-3.84301e-05 0.000147118 -0.0614319)
(-3.91198e-05 0.000153896 -0.061229)
(-3.8657e-05 0.000158694 -0.0610071)
(-3.73083e-05 0.000161324 -0.0607585)
(-3.53471e-05 0.000161878 -0.0604804)
(-3.3022e-05 0.000160619 -0.0601739)
(-3.05391e-05 0.000157892 -0.0598424)
(-2.80572e-05 0.000154064 -0.0594906)
(-2.56868e-05 0.000149476 -0.0591237)
(-2.34984e-05 0.000144411 -0.0587468)
(-2.15284e-05 0.000139086 -0.0583645)
(-1.97822e-05 0.000133672 -0.0579808)
(-1.82426e-05 0.000128282 -0.0575993)
(-1.68737e-05 0.000122996 -0.0572226)
(-1.56208e-05 0.000117872 -0.0568529)
(-1.44734e-05 0.000112917 -0.0564915)
(-1.34366e-05 0.000108269 -0.0561398)
(-1.26083e-05 0.000103604 -0.0557981)
(-1.219e-05 9.98363e-05 -0.0554706)
(-1.17629e-05 9.21852e-05 -0.0551484)
(-1.20779e-05 9.43547e-05 -0.0548776)
(5.21307e-06 3.63065e-05 -0.054497)
(0.00133263 0.00308237 -0.0910788)
(0.00046927 0.000973029 -0.0860744)
(0.000295936 0.000514795 -0.0787336)
(0.000206188 0.000250556 -0.0736848)
(0.000152633 0.000132428 -0.070313)
(0.000129963 6.88245e-05 -0.0680272)
(0.000121704 3.02308e-05 -0.0664664)
(0.000119512 6.05707e-06 -0.0653941)
(0.000120748 -9.76664e-06 -0.0646503)
(0.000124513 -2.08224e-05 -0.0641292)
(0.000130159 -2.87894e-05 -0.0637564)
(0.000137132 -3.44185e-05 -0.0634767)
(0.000144696 -3.81201e-05 -0.0632485)
(0.0001519 -4.01367e-05 -0.0630404)
(0.000157915 -4.06972e-05 -0.0628296)
(0.000162215 -4.00629e-05 -0.0626011)
(0.000164588 -3.85246e-05 -0.0623466)
(0.000165072 -3.63729e-05 -0.0620629)
(0.000163876 -3.38711e-05 -0.0617509)
(0.000161296 -3.12349e-05 -0.0614139)
(0.000157641 -2.86243e-05 -0.0610566)
(0.000153216 -2.6148e-05 -0.0606843)
(0.000148285 -2.38694e-05 -0.0603022)
(0.000143065 -2.18173e-05 -0.059915)
(0.000137733 -1.99872e-05 -0.0595268)
(0.00013244 -1.83641e-05 -0.0591409)
(0.000127263 -1.69369e-05 -0.0587601)
(0.000122217 -1.5694e-05 -0.0583867)
(0.000117235 -1.46864e-05 -0.0580221)
(0.000112209 -1.39492e-05 -0.0576684)
(0.000106886 -1.34845e-05 -0.0573257)
(0.000102029 -1.32676e-05 -0.0569982)
(9.36525e-05 -1.23352e-05 -0.0566759)
(9.56644e-05 -1.10952e-05 -0.0564005)
(3.93018e-05 6.45791e-06 -0.0560194)
(0.00158558 0.00144224 -0.06441)
(0.000363823 0.000361166 -0.0473291)
(0.00011934 0.000140716 -0.0385011)
(5.99981e-05 4.70914e-05 -0.0347433)
(2.1898e-05 2.5938e-05 -0.0329025)
(1.33432e-05 1.38063e-05 -0.0318862)
(1.53141e-05 4.14371e-06 -0.0312991)
(1.92742e-05 -2.96099e-06 -0.0309603)
(2.43831e-05 -8.61102e-06 -0.0307706)
(3.03018e-05 -1.35297e-05 -0.0306789)
(3.67066e-05 -1.80269e-05 -0.030654)
(4.34389e-05 -2.22825e-05 -0.030677)
(5.02839e-05 -2.63374e-05 -0.0307354)
(5.69695e-05 -3.01452e-05 -0.0308207)
(6.32057e-05 -3.36158e-05 -0.0309263)
(6.87437e-05 -3.66581e-05 -0.0310471)
(7.34105e-05 -3.92063e-05 -0.0311784)
(7.71227e-05 -4.12327e-05 -0.0313162)
(7.98553e-05 -4.27321e-05 -0.0314568)
(8.16392e-05 -4.37253e-05 -0.0315972)
(8.25439e-05 -4.42522e-05 -0.0317348)
(8.26577e-05 -4.43582e-05 -0.0318677)
(8.20868e-05 -4.40959e-05 -0.0319943)
(8.09386e-05 -4.352e-05 -0.0321138)
(7.93184e-05 -4.26814e-05 -0.0322256)
(7.73252e-05 -4.16288e-05 -0.0323294)
(7.50346e-05 -4.04048e-05 -0.0324253)
(7.25532e-05 -3.90672e-05 -0.0325135)
(6.99445e-05 -3.76726e-05 -0.0325947)
(6.73275e-05 -3.62916e-05 -0.03267)
(6.45442e-05 -3.48676e-05 -0.0327403)
(6.21282e-05 -3.36236e-05 -0.0328083)
(5.56181e-05 -3.02892e-05 -0.0328722)
(5.83684e-05 -3.12676e-05 -0.0329376)
(-2.05641e-05 1.08752e-05 -0.0329666)
(0.00276 0.0025573 -0.102212)
(0.00146835 0.000899258 -0.105545)
(0.00113136 0.000667919 -0.105302)
(0.000899159 0.00045305 -0.104251)
(0.000716048 0.000320893 -0.1028)
(0.000589869 0.000231463 -0.101124)
(0.000499615 0.000161724 -0.099423)
(0.000433249 0.000106775 -0.0978387)
(0.000385489 6.3827e-05 -0.0964463)
(0.000352462 3.01779e-05 -0.0952692)
(0.00033094 3.45852e-06 -0.094301)
(0.000318308 -1.81453e-05 -0.0935216)
(0.000312342 -3.59451e-05 -0.0929063)
(0.000311007 -5.08358e-05 -0.0924286)
(0.00031242 -6.33041e-05 -0.0920633)
(0.000314985 -7.35949e-05 -0.0917871)
(0.000317518 -8.18614e-05 -0.0915797)
(0.000319209 -8.82166e-05 -0.0914228)
(0.000319575 -9.27682e-05 -0.0913012)
(0.000318392 -9.56632e-05 -0.0912028)
(0.000315617 -9.70824e-05 -0.0911181)
(0.000311361 -9.72162e-05 -0.0910399)
(0.000305811 -9.62801e-05 -0.0909633)
(0.000299186 -9.44921e-05 -0.0908849)
(0.000291713 -9.20515e-05 -0.090803)
(0.000283607 -8.91391e-05 -0.0907166)
(0.000275032 -8.59107e-05 -0.0906259)
(0.00026615 -8.24875e-05 -0.0905313)
(0.000257042 -7.90146e-05 -0.0904336)
(0.000247848 -7.55908e-05 -0.0903338)
(0.000238413 -7.232e-05 -0.0902323)
(0.000229533 -6.92807e-05 -0.0901307)
(0.000216416 -6.52993e-05 -0.0900265)
(0.000213092 -6.21241e-05 -0.0899303)
(0.000128557 -2.58706e-05 -0.0898175)
(0.0028929 0.00276143 -0.100635)
(0.00143658 0.000935511 -0.102594)
(0.00102631 0.00064141 -0.100972)
(0.000765655 0.000404692 -0.0987456)
(0.000572516 0.000265717 -0.0964418)
(0.000448234 0.000179169 -0.094251)
(0.000366912 0.000117289 -0.0923045)
(0.000311674 7.13822e-05 -0.0906623)
(0.000274565 3.69573e-05 -0.0893229)
(0.000250405 1.0721e-05 -0.0882544)
(0.000235594 -9.78999e-06 -0.0874169)
(0.000227677 -2.63348e-05 -0.0867731)
(0.000224818 -4.00856e-05 -0.0862898)
(0.000225497 -5.17627e-05 -0.0859392)
(0.000228375 -6.18012e-05 -0.0856976)
(0.000232311 -7.04205e-05 -0.0855448)
(0.000236383 -7.77172e-05 -0.0854631)
(0.000239909 -8.3752e-05 -0.0854372)
(0.000242431 -8.85577e-05 -0.0854537)
(0.000243689 -9.21849e-05 -0.0855011)
(0.000243579 -9.47051e-05 -0.08557)
(0.000242117 -9.61857e-05 -0.0856523)
(0.000239411 -9.67138e-05 -0.0857418)
(0.00023561 -9.63973e-05 -0.0858336)
(0.00023089 -9.53485e-05 -0.085924)
(0.000225432 -9.36841e-05 -0.0860105)
(0.000219378 -9.15248e-05 -0.0860915)
(0.000212881 -8.89832e-05 -0.0861664)
(0.000206016 -8.62091e-05 -0.0862348)
(0.000198937 -8.33153e-05 -0.0862971)
(0.000191531 -8.03888e-05 -0.0863532)
(0.000184509 -7.7544e-05 -0.0864043)
(0.000173469 -7.32231e-05 -0.0864489)
(0.000171271 -7.06958e-05 -0.0864906)
(8.66243e-05 -3.06858e-05 -0.0865204)
(0.00291762 0.002817 -0.0977486)
(0.00128271 0.000929018 -0.0972649)
(0.000825732 0.000583209 -0.0934989)
(0.000557299 0.000339345 -0.0898035)
(0.000378644 0.0002064 -0.0866879)
(0.000273864 0.000131618 -0.0841765)
(0.000211408 8.29578e-05 -0.082208)
(0.000172176 4.86788e-05 -0.0807009)
(0.00014766 2.36203e-05 -0.079565)
(0.000132893 4.70727e-06 -0.078717)
(0.000124709 -1.0034e-05 -0.0780924)
(0.000121093 -2.19955e-05 -0.0776413)
(0.000120683 -3.19915e-05 -0.0773269)
(0.000122436 -4.05433e-05 -0.0771223)
(0.000125505 -4.79491e-05 -0.0770069)
(0.000129205 -5.43319e-05 -0.0769648)
(0.000133011 -5.97696e-05 -0.0769831)
(0.000136537 -6.43279e-05 -0.0770504)
(0.000139499 -6.80589e-05 -0.0771569)
(0.000141724 -7.10126e-05 -0.0772944)
(0.000143125 -7.32544e-05 -0.0774556)
(0.00014367 -7.48462e-05 -0.0776343)
(0.000143379 -7.58406e-05 -0.0778252)
(0.000142306 -7.62881e-05 -0.078024)
(0.000140531 -7.62342e-05 -0.0782269)
(0.000138137 -7.57234e-05 -0.078431)
(0.00013519 -7.48147e-05 -0.0786339)
(0.000131784 -7.35818e-05 -0.0788338)
(0.000127966 -7.21261e-05 -0.0790296)
(0.00012388 -7.05151e-05 -0.0792203)
(0.000119474 -6.87394e-05 -0.0794051)
(0.000115282 -6.68256e-05 -0.0795843)
(0.00010777 -6.31164e-05 -0.0797573)
(0.00010722 -6.21129e-05 -0.0799192)
(3.41496e-05 -2.68219e-05 -0.080098)
(0.00262321 0.00277797 -0.0932172)
(0.00110395 0.000852977 -0.0893648)
(0.000671191 0.000480497 -0.0828071)
(0.000438396 0.000239498 -0.0777986)
(0.000293162 0.00012813 -0.0742316)
(0.000220041 6.7302e-05 -0.0717187)
(0.000184648 2.82072e-05 -0.0699607)
(0.000167257 1.97068e-06 -0.0687316)
(0.000160468 -1.64841e-05 -0.0678732)
(0.000160693 -3.03603e-05 -0.067276)
(0.000165755 -4.1548e-05 -0.0668669)
(0.000174253 -5.10818e-05 -0.0665951)
(0.000184992 -5.9492e-05 -0.0664258)
(0.000196722 -6.69771e-05 -0.0663333)
(0.000208236 -7.35066e-05 -0.0662969)
(0.000218528 -7.89545e-05 -0.0662998)
(0.000226868 -8.32195e-05 -0.0663277)
(0.000232846 -8.6264e-05 -0.0663689)
(0.00023635 -8.81077e-05 -0.0664138)
(0.000237481 -8.88361e-05 -0.0664554)
(0.000236467 -8.85775e-05 -0.0664888)
(0.000233629 -8.74827e-05 -0.0665108)
(0.000229315 -8.57162e-05 -0.06652)
(0.000223867 -8.34398e-05 -0.066516)
(0.000217593 -8.07941e-05 -0.0664992)
(0.000210766 -7.79035e-05 -0.0664708)
(0.000203584 -7.48684e-05 -0.0664324)
(0.000196222 -7.17658e-05 -0.0663856)
(0.000188776 -6.86948e-05 -0.0663321)
(0.00018137 -6.57331e-05 -0.066274)
(0.00017377 -6.2895e-05 -0.0662125)
(0.000166877 -6.04087e-05 -0.0661507)
(0.000154635 -5.62063e-05 -0.0660856)
(0.000155109 -5.47893e-05 -0.0660313)
(5.50082e-05 -1.17241e-05 -0.0659372)
(0.00128195 0.00144028 -0.0571723)
(0.000293845 0.000236281 -0.0400858)
(0.000105763 5.42301e-05 -0.0324295)
(3.33163e-05 3.09087e-05 -0.0293952)
(1.85691e-05 8.68893e-06 -0.0279383)
(8.18513e-06 8.36569e-06 -0.0271452)
(-1.02472e-07 1.39574e-05 -0.0266947)
(-5.78783e-06 1.9044e-05 -0.0264392)
(-1.01985e-05 2.40785e-05 -0.0263059)
(-1.41122e-05 2.94943e-05 -0.0262527)
(-1.78146e-05 3.52992e-05 -0.0262538)
(-2.1408e-05 4.14157e-05 -0.0262931)
(-2.49308e-05 4.77365e-05 -0.02636)
(-2.82964e-05 5.39676e-05 -0.0264474)
(-3.1364e-05 5.97564e-05 -0.0265496)
(-3.40302e-05 6.4852e-05 -0.026662)
(-3.62261e-05 6.90814e-05 -0.0267806)
(-3.79148e-05 7.23504e-05 -0.0269021)
(-3.90992e-05 7.4651e-05 -0.0270235)
(-3.98048e-05 7.60256e-05 -0.0271421)
(-4.00745e-05 7.65547e-05 -0.0272562)
(-3.99657e-05 7.63473e-05 -0.0273644)
(-3.95404e-05 7.55229e-05 -0.0274657)
(-3.88552e-05 7.41957e-05 -0.0275598)
(-3.79595e-05 7.2469e-05 -0.0276466)
(-3.68862e-05 7.04159e-05 -0.0277263)
(-3.56663e-05 6.80946e-05 -0.0277989)
(-3.43568e-05 6.56106e-05 -0.0278647)
(-3.29896e-05 6.29855e-05 -0.0279244)
(-3.17173e-05 6.05054e-05 -0.0279792)
(-3.04303e-05 5.79385e-05 -0.0280307)
(-2.94444e-05 5.60187e-05 -0.0280814)
(-2.65658e-05 5.03888e-05 -0.0281285)
(-2.77613e-05 5.35641e-05 -0.0281772)
(1.06066e-05 -2.01581e-05 -0.0281834)
(0.00274923 0.00282788 -0.101558)
(0.00113338 0.0011547 -0.104419)
(0.000794561 0.00082541 -0.104235)
(0.000564281 0.000603549 -0.103226)
(0.000406078 0.000445782 -0.101847)
(0.000304363 0.000342281 -0.100278)
(0.000232888 0.00026854 -0.098687)
(0.000179251 0.000212411 -0.0972021)
(0.00013879 0.000169671 -0.0958916)
(0.00010826 0.000137348 -0.0947775)
(8.50311e-05 0.000112921 -0.0938565)
(6.71932e-05 9.44815e-05 -0.0931134)
(5.33774e-05 8.05565e-05 -0.0925285)
(4.25612e-05 7.00167e-05 -0.0920815)
(3.40006e-05 6.20029e-05 -0.0917537)
(2.71667e-05 5.58515e-05 -0.0915279)
(2.16558e-05 5.10621e-05 -0.0913893)
(1.7159e-05 4.72583e-05 -0.0913247)
(1.34496e-05 4.41546e-05 -0.0913228)
(1.03662e-05 4.15405e-05 -0.091374)
(7.78876e-06 3.92634e-05 -0.0914697)
(5.62396e-06 3.72207e-05 -0.0916026)
(3.79661e-06 3.53432e-05 -0.0917665)
(2.2481e-06 3.35819e-05 -0.0919559)
(9.24582e-07 3.18997e-05 -0.0921664)
(-2.23176e-07 3.02554e-05 -0.0923941)
(-1.25483e-06 2.85993e-05 -0.0926356)
(-2.21035e-06 2.69203e-05 -0.092888)
(-3.11753e-06 2.5168e-05 -0.0931482)
(-3.97935e-06 2.34569e-05 -0.0934134)
(-4.80836e-06 2.17364e-05 -0.0936813)
(-5.56221e-06 2.02796e-05 -0.0939514)
(-6.75503e-06 1.80822e-05 -0.0942244)
(-8.48206e-06 1.64987e-05 -0.0944909)
(-2.11056e-05 -7.94693e-06 -0.0948016)
(0.00207402 0.00191558 -0.0770548)
(0.000595963 0.000471885 -0.0633714)
(0.000231885 0.000208263 -0.053782)
(0.000119911 7.67812e-05 -0.0489737)
(5.82255e-05 3.80623e-05 -0.0464546)
(3.64119e-05 1.88931e-05 -0.0450006)
(3.1525e-05 5.21575e-06 -0.0441132)
(3.20261e-05 -4.59534e-06 -0.0435673)
(3.51968e-05 -1.20752e-05 -0.0432335)
(3.99691e-05 -1.83164e-05 -0.0430411)
(4.5696e-05 -2.38086e-05 -0.0429468)
(5.20808e-05 -2.88901e-05 -0.0429237)
(5.8842e-05 -3.36877e-05 -0.0429541)
(6.5658e-05 -3.81966e-05 -0.0430259)
(7.21946e-05 -4.23401e-05 -0.04313)
(7.81629e-05 -4.6026e-05 -0.0432593)
(8.33547e-05 -4.91821e-05 -0.043408)
(8.76524e-05 -5.17727e-05 -0.0435708)
(9.09968e-05 -5.37848e-05 -0.043743)
(9.33863e-05 -5.52316e-05 -0.0439207)
(9.48657e-05 -5.61497e-05 -0.0441006)
(9.5499e-05 -5.65795e-05 -0.0442797)
(9.53712e-05 -5.65676e-05 -0.0444559)
(9.45727e-05 -5.61625e-05 -0.0446272)
(9.31985e-05 -5.54104e-05 -0.0447924)
(9.13396e-05 -5.43567e-05 -0.0449505)
(8.90701e-05 -5.3049e-05 -0.0451009)
(8.65116e-05 -5.15628e-05 -0.0452434)
(8.37345e-05 -4.99762e-05 -0.0453783)
(8.08842e-05 -4.83839e-05 -0.0455065)
(7.78105e-05 -4.67204e-05 -0.0456287)
(7.50108e-05 -4.51643e-05 -0.045747)
(6.79866e-05 -4.12053e-05 -0.0458598)
(7.02906e-05 -4.17123e-05 -0.0459665)
(-1.2585e-05 6.11549e-06 -0.0460416)
(0.00271592 0.000141483 -0.1022)
(0.00107671 6.33791e-05 -0.105339)
(0.000766045 4.93998e-05 -0.10413)
(0.000515194 3.60431e-05 -0.102294)
(0.000357862 2.7707e-05 -0.1002)
(0.000243732 2.25126e-05 -0.0980902)
(0.000157245 1.91135e-05 -0.0961549)
(9.23426e-05 1.69784e-05 -0.094477)
(4.38702e-05 1.57922e-05 -0.0930671)
(7.86216e-06 1.53198e-05 -0.0918939)
(-1.82798e-05 1.53575e-05 -0.090907)
(-3.59694e-05 1.5714e-05 -0.0900674)
(-4.6545e-05 1.62036e-05 -0.0893234)
(-5.15157e-05 1.66936e-05 -0.0886352)
(-5.22346e-05 1.70813e-05 -0.0879749)
(-4.9943e-05 1.7302e-05 -0.087325)
(-4.57314e-05 1.73318e-05 -0.0866761)
(-4.04907e-05 1.71799e-05 -0.0860244)
(-3.48953e-05 1.68706e-05 -0.0853697)
(-2.94155e-05 1.64367e-05 -0.0847141)
(-2.43484e-05 1.59178e-05 -0.0840604)
(-1.98446e-05 1.53447e-05 -0.0834119)
(-1.59554e-05 1.47451e-05 -0.0827717)
(-1.26797e-05 1.4142e-05 -0.0821424)
(-9.97228e-06 1.35542e-05 -0.0815263)
(-7.76282e-06 1.29843e-05 -0.0809251)
(-5.97585e-06 1.24296e-05 -0.0803401)
(-4.53545e-06 1.18531e-05 -0.0797728)
(-3.4139e-06 1.12511e-05 -0.0792241)
(-2.57908e-06 1.06069e-05 -0.078695)
(-2.05367e-06 9.92638e-06 -0.0781847)
(-1.77656e-06 9.43039e-06 -0.0776945)
(-1.69879e-06 8.80892e-06 -0.0772108)
(-4.15932e-07 9.23803e-06 -0.0767739)
(1.40082e-05 5.9877e-06 -0.0762379)
(8.8964e-05 0.00271828 -0.102214)
(5.67681e-05 0.0010755 -0.105365)
(5.26346e-05 0.000765039 -0.104165)
(4.39498e-05 0.000514016 -0.10233)
(3.60625e-05 0.000356905 -0.100233)
(3.0636e-05 0.000243075 -0.0981205)
(2.69188e-05 0.000156848 -0.0961818)
(2.42943e-05 9.20963e-05 -0.0945012)
(2.24188e-05 4.36765e-05 -0.0930891)
(2.10738e-05 7.70565e-06 -0.0919143)
(2.01054e-05 -1.83967e-05 -0.0909267)
(1.94836e-05 -3.60661e-05 -0.0900861)
(1.91801e-05 -4.66242e-05 -0.0893413)
(1.90618e-05 -5.15722e-05 -0.0886524)
(1.90347e-05 -5.22605e-05 -0.0879915)
(1.90366e-05 -4.99343e-05 -0.0873412)
(1.90261e-05 -4.56897e-05 -0.086692)