/*--------------------------------*- C++ -*----------------------------------*\
| =========                 |                                                 |
| \\      /  F ield         | OpenFOAM: The Open Source CFD Toolbox           |
|  \\    /   O peration     | Version:  2.4.x                                 |
|   \\  /    A nd           | Web:      www.OpenFOAM.org                      |
|    \\/     M anipulation  |                                                 |
\*---------------------------------------------------------------------------*/
FoamFile
{
    version     2.0;
    format      ascii;
    class       volScalarField;
    location    "9960/fuel";
    object      T;
}
// * * * * * * * * * * * * * * * * * * * * * * * * * * * * * * * * * * * * * //

dimensions      [0 0 0 1 0 0 0];

internalField   nonuniform List<scalar> 
181195
(
310.75
315.812
322.659
330.021
337.368
344.471
351.224
357.574
363.492
368.954
373.942
378.439
382.43
385.903
388.847
391.255
393.117
394.425
395.172
395.352
394.961
393.995
392.453
390.34
387.66
384.426
380.652
376.353
371.547
366.258
360.525
354.432
348.178
342.244
337.797
309.623
314.271
320.597
327.423
334.247
340.854
347.141
353.058
358.578
363.677
368.339
372.547
376.285
379.543
382.309
384.576
386.336
387.581
388.305
388.505
388.177
387.318
385.931
384.016
381.583
378.64
375.202
371.283
366.901
362.077
356.848
351.294
345.601
340.218
336.22
308.517
312.746
318.562
324.864
331.178
337.297
343.125
348.614
353.738
358.477
362.818
366.746
370.248
373.316
375.941
378.115
379.83
381.081
381.86
382.161
381.98
381.313
380.159
378.519
376.397
373.801
370.742
367.233
363.287
358.924
354.18
349.128
343.944
339.052
335.456
310.456
315.42
322.139
329.367
336.581
343.558
350.192
356.432
362.247
367.616
372.522
376.947
380.877
384.3
387.207
389.589
391.437
392.744
393.501
393.704
393.346
392.425
390.939
388.892
386.289
383.141
379.461
375.265
370.57
365.4
359.791
353.828
347.707
341.901
337.558
312.439
318.057
325.624
333.746
341.841
349.66
357.089
364.069
370.567
376.557
382.015
386.922
391.259
395.009
398.162
400.706
402.633
403.934
404.604
404.639
404.034
402.791
400.912
398.401
395.269
391.532
387.206
382.31
376.868
370.904
364.463
357.637
350.64
343.994
338.976
310.106
314.905
321.433
328.474
335.512
342.321
348.8
354.896
360.579
365.828
370.623
374.948
378.786
382.125
384.954
387.264
389.048
390.298
391.008
391.174
390.794
389.865
388.388
386.368
383.812
380.731
377.14
373.054
368.492
363.475
358.043
352.277
346.368
340.776
336.609
316.867
323.944
333.408
343.517
353.564
363.249
372.434
381.052
389.059
396.421
403.111
409.099
414.361
418.877
422.631
425.61
427.803
429.2
429.794
429.582
428.561
426.733
424.102
420.678
416.477
411.519
405.828
399.43
392.355
384.637
376.33
367.547
358.553
349.988
343.471
308.567
312.865
318.742
325.092
331.448
337.605
343.467
348.988
354.141
358.908
363.275
367.229
370.758
373.854
376.509
378.715
380.464
381.749
382.561
382.894
382.742
382.099
380.964
379.336
377.219
374.62
371.55
368.02
364.045
359.645
354.852
349.742
344.492
339.532
335.877
310.299
315.156
321.766
328.895
336.018
342.91
349.466
355.633
361.382
366.69
371.539
375.91
379.79
383.164
386.022
388.356
390.157
391.418
392.133
392.298
391.909
390.964
389.465
387.414
384.82
381.694
378.05
373.903
369.273
364.181
358.667
352.813
346.812
341.129
336.887
308.912
313.32
319.341
325.843
332.348
338.648
344.646
350.293
355.564
360.438
364.9
368.937
372.535
375.686
378.38
380.611
382.37
383.65
384.443
384.743
384.545
383.843
382.637
380.928
378.718
376.017
372.836
369.186
365.084
360.55
355.618
350.366
344.974
339.875
336.109
317.405
324.648
334.333
344.676
354.954
364.86
374.255
383.067
391.253
398.779
405.615
411.731
417.103
421.71
425.534
428.563
430.785
432.19
432.772
432.527
431.452
429.55
426.826
423.29
418.958
413.852
407.996
401.419
394.149
386.222
377.693
368.68
359.451
350.663
343.976
312.982
318.786
326.592
334.962
343.301
351.353
359
366.184
372.87
379.03
384.642
389.683
394.135
397.981
401.209
403.808
405.769
407.085
407.747
407.753
407.099
405.786
403.815
401.194
397.931
394.043
389.549
384.468
378.822
372.64
365.966
358.896
351.648
344.759
339.548
312.74
318.464
326.165
334.425
342.656
350.605
358.155
365.249
371.852
377.937
383.481
388.463
392.864
396.667
399.861
402.435
404.379
405.687
406.351
406.367
405.733
404.449
402.516
399.942
396.735
392.912
388.491
383.491
377.935
371.849
365.278
358.316
351.181
344.4
339.275
310.66
315.661
322.442
329.744
337.036
344.088
350.795
357.104
362.984
368.411
373.365
377.83
381.788
385.226
388.133
390.499
392.317
393.58
394.281
394.416
393.982
392.978
391.405
389.267
386.573
383.334
379.567
375.287
370.513
365.268
359.594
353.572
347.401
341.554
337.179
315.866
322.628
331.673
341.341
350.955
360.225
369.019
377.273
384.944
392.001
398.416
404.162
409.217
413.561
417.179
420.058
422.188
423.559
424.166
424.004
423.07
421.368
418.9
415.675
411.708
407.018
401.629
395.564
388.851
381.523
373.631
365.284
356.735
348.594
342.402
309.401
313.93
320.129
326.833
333.542
340.039
346.223
352.045
357.475
362.495
367.084
371.228
374.911
378.123
380.851
383.089
384.829
386.064
386.787
386.994
386.683
385.851
384.5
382.632
380.254
377.377
374.014
370.18
365.89
361.168
356.048
350.612
345.041
339.778
335.881
308.926
313.319
319.333
325.836
332.344
338.647
344.648
350.298
355.57
360.445
364.907
368.943
372.539
375.686
378.375
380.598
382.349
383.619
384.402
384.691
384.48
383.768
382.551
380.831
378.612
375.903
372.715
369.061
364.956
360.42
355.487
350.236
344.845
339.75
335.987
312.749
318.491
326.21
334.483
342.726
350.684
358.243
365.344
371.952
378.043
383.594
388.583
392.993
396.808
400.017
402.61
404.576
405.909
406.6
406.644
406.039
404.782
402.876
400.324
397.137
393.329
388.918
383.923
378.365
372.272
365.688
358.705
351.544
344.734
339.585
311.328
316.57
323.655
331.273
338.872
346.218
353.2
359.763
365.877
371.518
376.665
381.299
385.406
388.97
391.981
394.431
396.309
397.61
398.325
398.449
397.979
396.913
395.252
392.999
390.163
386.755
382.792
378.29
373.268
367.752
361.782
355.444
348.944
342.774
338.137
309.954
314.74
321.235
328.229
335.216
341.975
348.404
354.453
360.093
365.302
370.065
374.364
378.187
381.523
384.362
386.696
388.517
389.816
390.587
390.822
390.518
389.669
388.275
386.338
383.863
380.86
377.341
373.322
368.818
363.852
358.461
352.725
346.836
341.255
337.094
309.445
313.989
320.208
326.932
333.661
340.177
346.379
352.217
357.663
362.696
367.298
371.453
375.146
378.365
381.1
383.343
385.086
386.321
387.044
387.25
386.935
386.098
384.739
382.862
380.474
377.585
374.209
370.359
366.053
361.313
356.175
350.718
345.126
339.843
335.929
313.247
319.144
327.067
335.559
344.017
352.182
359.936
367.22
373.998
380.242
385.929
391.036
395.544
399.436
402.699
405.322
407.297
408.615
409.27
409.257
408.575
407.222
405.202
402.521
399.19
395.226
390.646
385.472
379.726
373.436
366.649
359.46
352.092
345.087
339.784
310.122
314.968
321.539
328.611
335.674
342.506
349.004
355.117
360.816
366.079
370.889
375.231
379.09
382.455
385.317
387.667
389.498
390.8
391.567
391.792
391.47
390.597
389.173
387.199
384.682
381.63
378.058
373.98
369.412
364.377
358.913
353.101
347.134
341.477
337.254
310.077
314.853
321.361
328.384
335.405
342.199
348.662
354.744
360.414
365.651
370.436
374.751
378.582
381.915
384.741
387.05
388.835
390.089
390.805
390.98
390.608
389.69
388.227
386.22
383.679
380.613
377.038
372.968
368.422
363.421
358.005
352.255
346.361
340.782
336.626
311.632
316.979
324.195
331.949
339.683
347.158
354.262
360.94
367.16
372.896
378.129
382.837
387.003
390.613
393.655
396.119
397.997
399.282
399.966
400.046
399.518
398.383
396.642
394.299
391.365
387.852
383.777
379.159
374.017
368.377
362.281
355.816
349.191
342.903
338.172
313.846
319.948
328.133
336.897
345.623
354.044
362.039
369.547
376.531
382.963
388.818
394.073
398.707
402.704
406.049
408.732
410.743
412.073
412.718
412.671
411.931
410.498
408.375
405.569
402.091
397.96
393.193
387.813
381.844
375.314
368.272
360.815
353.173
345.904
340.392
307.756
311.739
317.228
323.181
329.149
334.937
340.455
345.656
350.515
355.015
359.141
362.882
366.227
369.167
371.694
373.801
375.481
376.728
377.534
377.893
377.799
377.25
376.241
374.773
372.85
370.478
367.666
364.425
360.769
356.715
352.296
347.585
342.75
338.195
334.877
307.749
311.728
317.214
323.163
329.127
334.912
340.426
345.624
350.48
354.977
359.102
362.841
366.185
369.124
371.651
373.759
375.441
376.69
377.499
377.861
377.771
377.225
376.22
374.757
372.838
370.47
367.662
364.425
360.771
356.721
352.305
347.597
342.763
338.211
334.894
307.756
311.704
317.171
323.112
329.075
334.858
340.37
345.565
350.418
354.911
359.031
362.766
366.104
369.037
371.557
373.656
375.329
376.568
377.367
377.719
377.619
377.063
376.05
374.579
372.654
370.282
367.472
364.235
360.584
356.537
352.128
347.427
342.604
338.063
334.755
311.746
317.153
324.436
332.253
340.046
347.576
354.731
361.457
367.721
373.498
378.767
383.509
387.707
391.347
394.416
396.907
398.81
400.116
400.821
400.917
400.403
399.275
397.536
395.19
392.245
388.714
384.614
379.961
374.778
369.087
362.933
356.403
349.706
343.347
338.558
313.115
318.965
326.829
335.259
343.658
351.766
359.467
366.701
373.432
379.634
385.284
390.358
394.837
398.706
401.952
404.563
406.531
407.847
408.506
408.502
407.834
406.501
404.506
401.854
398.558
394.631
390.094
384.967
379.271
373.036
366.305
359.175
351.868
344.921
339.664
315.426
322.045
330.904
340.376
349.797
358.883
367.505
375.596
383.118
390.04
396.333
401.973
406.937
411.205
414.763
417.6
419.704
421.067
421.682
421.545
420.654
419.01
416.617
413.484
409.623
405.055
399.8
393.884
387.333
380.178
372.47
364.316
355.963
348.01
341.964
311.746
317.126
324.388
332.192
339.975
347.497
354.645
361.365
367.623
373.394
378.657
383.392
387.581
391.21
394.267
396.742
398.626
399.912
400.593
400.666
400.127
398.976
397.215
394.849
391.886
388.342
384.232
379.576
374.392
368.708
362.564
356.051
349.375
343.038
338.269
310.698
315.733
322.549
329.883
337.203
344.28
351.01
357.338
363.236
368.679
373.65
378.132
382.109
385.57
388.503
390.901
392.754
394.056
394.798
394.976
394.583
393.619
392.082
389.976
387.306
384.085
380.326
376.046
371.261
365.996
360.29
354.227
348.005
342.102
337.68
314.942
321.408
330.065
339.324
348.533
357.417
365.848
373.763
381.121
387.894
394.054
399.578
404.442
408.629
412.124
414.915
416.994
418.349
418.976
418.87
418.029
416.452
414.145
411.114
407.373
402.94
397.836
392.084
385.711
378.746
371.24
363.297
355.158
347.411
341.526
315.828
322.575
331.604
341.254
350.851
360.104
368.884
377.123
384.78
391.825
398.229
403.966
409.013
413.351
416.963
419.839
421.967
423.338
423.946
423.787
422.858
421.162
418.701
415.485
411.529
406.85
401.473
395.422
388.723
381.41
373.535
365.205
356.673
348.548
342.369
313.885
320.011
328.223
337.012
345.759
354.2
362.214
369.738
376.738
383.184
389.052
394.321
398.969
402.98
406.343
409.044
411.075
412.428
413.094
413.069
412.35
410.937
408.83
406.038
402.569
398.442
393.674
388.288
382.307
375.759
368.692
361.204
353.527
346.221
340.68
309.666
314.291
320.611
327.44
334.271
340.884
347.178
353.101
358.626
363.73
368.396
372.607
376.348
379.607
382.374
384.64
386.398
387.641
388.362
388.557
388.223
387.358
385.964
384.042
381.601
378.651
375.205
371.279
366.889
362.058
356.823
351.263
345.565
340.178
336.179
308.257
312.425
318.148
324.345
330.552
336.568
342.297
347.694
352.734
357.397
361.671
365.542
369.001
372.036
374.642
376.811
378.536
379.808
380.62
380.966
380.839
380.235
379.152
377.588
375.548
373.039
370.07
366.653
362.801
358.535
353.886
348.928
343.837
339.031
335.505
308.712
313.051
318.982
325.39
331.804
338.017
343.934
349.507
354.709
359.52
363.925
367.909
371.459
374.566
377.22
379.414
381.141
382.393
383.164
383.449
383.242
382.541
381.345
379.654
377.473
374.812
371.681
368.092
364.061
359.609
354.769
349.618
344.333
339.342
335.664
316.524
323.493
332.815
342.773
352.671
362.214
371.266
379.76
387.652
394.91
401.505
407.411
412.601
417.057
420.763
423.706
425.875
427.26
427.856
427.657
426.662
424.874
422.295
418.937
414.813
409.944
404.354
398.069
391.117
383.531
375.367
366.734
357.893
349.474
343.069
317.204
324.385
333.987
344.242
354.434
364.257
373.574
382.313
390.432
397.898
404.678
410.747
416.078
420.651
424.449
427.46
429.672
431.075
431.662
431.43
430.376
428.503
425.815
422.322
418.039
412.989
407.195
400.686
393.489
385.64
377.194
368.267
359.126
350.42
343.797
313.03
318.859
326.691
335.086
343.448
351.523
359.191
366.395
373.1
379.277
384.904
389.959
394.422
398.276
401.511
404.114
406.076
407.39
408.049
408.049
407.388
406.064
404.082
401.446
398.168
394.263
389.75
384.65
378.984
372.78
366.084
358.99
351.72
344.808
339.579
309.857
314.581
321.012
327.949
334.882
341.591
347.974
353.979
359.579
364.751
369.48
373.748
377.542
380.85
383.663
385.973
387.772
389.051
389.805
390.027
389.713
388.861
387.468
385.539
383.078
380.096
376.605
372.62
368.158
363.24
357.905
352.232
346.41
340.898
336.793
313.198
319.095
327.01
335.487
343.929
352.078
359.816
367.086
373.85
380.082
385.759
390.858
395.361
399.253
402.519
405.15
407.137
408.471
409.145
409.155
408.497
407.17
405.177
402.523
399.219
395.28
390.724
385.571
379.845
373.572
366.799
359.62
352.261
345.262
339.964
308.845
313.18
319.134
325.584
332.043
338.301
344.26
349.872
355.108
359.95
364.382
368.389
371.958
375.077
377.739
379.934
381.657
382.899
383.655
383.92
383.689
382.959
381.731
380.005
377.788
375.088
371.917
368.288
364.216
359.722
354.84
349.648
344.324
339.298
335.591
314.412
320.711
329.147
338.171
347.15
355.813
364.035
371.755
378.935
385.544
391.56
396.956
401.713
405.813
409.244
411.992
414.05
415.406
416.056
415.994
415.217
413.726
411.522
408.613
405.012
400.733
395.799
390.232
384.055
377.299
370.013
362.297
354.388
346.861
341.147
310.871
315.936
322.804
330.2
337.585
344.725
351.516
357.902
363.852
369.344
374.357
378.872
382.874
386.348
389.283
391.67
393.502
394.769
395.468
395.592
395.139
394.108
392.5
390.321
387.577
384.282
380.45
376.1
371.249
365.922
360.159
354.045
347.778
341.838
337.389
312.461
318.112
325.709
333.853
341.967
349.803
357.246
364.241
370.752
376.754
382.224
387.144
391.494
395.261
398.432
400.997
402.948
404.275
404.973
405.036
404.459
403.242
401.386
398.896
395.78
392.053
387.732
382.836
377.385
371.407
364.945
358.092
351.063
344.382
339.336
308.065
312.177
317.823
323.936
330.06
335.996
341.65
346.977
351.952
356.557
360.779
364.605
368.026
371.033
373.618
375.775
377.495
378.772
379.596
379.962
379.862
379.292
378.249
376.732
374.744
372.292
369.385
366.035
362.254
358.061
353.489
348.611
343.599
338.87
335.406
309.548
314.136
320.408
327.186
333.967
340.532
346.78
352.66
358.145
363.213
367.846
372.03
375.749
378.991
381.748
384.011
385.771
387.023
387.76
387.976
387.668
386.835
385.475
383.592
381.193
378.286
374.886
371.007
366.665
361.881
356.694
351.181
345.529
340.184
336.218
311.982
317.469
324.855
332.779
340.678
348.309
355.56
362.374
368.72
374.571
379.907
384.707
388.954
392.633
395.733
398.245
400.159
401.467
402.164
402.243
401.701
400.538
398.755
396.355
393.349
389.749
385.572
380.837
375.564
369.779
363.524
356.889
350.086
343.624
338.753
318.329
325.852
335.914
346.657
357.329
367.613
377.365
386.509
395.002
402.807
409.893
416.229
421.789
426.55
430.495
433.61
435.883
437.304
437.866
437.565
436.4
434.373
431.491
427.765
423.211
417.852
411.716
404.831
397.228
388.945
380.039
370.631
361.002
351.832
344.859
307.967
311.952
317.483
323.501
329.54
335.399
340.983
346.247
351.164
355.715
359.886
363.662
367.031
369.983
372.508
374.6
376.25
377.453
378.202
378.494
378.325
377.692
376.596
375.038
373.024
370.562
367.663
364.34
360.606
356.482
352
347.234
342.353
337.764
334.422
307.769
311.777
317.285
323.255
329.241
335.046
340.58
345.795
350.668
355.18
359.315
363.062
366.407
369.342
371.857
373.946
375.601
376.817
377.588
377.907
377.772
377.178
376.126
374.617
372.654
370.246
367.401
364.133
360.455
356.385
351.957
347.242
342.408
337.859
334.545
312.768
318.516
326.24
334.519
342.768
350.733
358.298
365.407
372.022
378.119
383.675
388.667
393.076
396.888
400.089
402.67
404.62
405.933
406.602
406.621
405.989
404.706
402.772
400.195
396.984
393.155
388.725
383.715
378.146
372.045
365.458
358.477
351.322
344.521
339.38
307.679
311.643
317.106
323.029
328.967
334.727
340.216
345.39
350.225
354.702
358.81
362.537
365.873
368.81
371.341
373.458
375.156
376.426
377.259
377.65
377.591
377.078
376.107
374.677
372.791
370.455
367.677
364.467
360.84
356.812
352.417
347.726
342.907
338.366
335.057
311.514
316.808
323.967
331.663
339.341
346.762
353.815
360.446
366.622
372.319
377.515
382.193
386.334
389.924
392.953
395.411
397.289
398.579
399.276
399.374
398.87
397.764
396.055
393.75
390.856
387.387
383.359
378.789
373.698
368.109
362.065
355.654
349.081
342.843
338.152
308.565
312.778
318.588
324.893
331.213
337.338
343.173
348.67
353.802
358.548
362.894
366.824
370.325
373.385
375.996
378.149
379.837
381.054
381.794
382.052
381.824
381.109
379.908
378.221
376.057
373.422
370.33
366.794
362.828
358.454
353.706
348.659
343.489
338.617
335.041
310.193
315.06
321.656
328.757
335.848
342.707
349.231
355.37
361.092
366.377
371.206
375.562
379.43
382.8
385.66
388.002
389.818
391.101
391.843
392.04
391.687
390.781
389.323
387.315
384.763
381.678
378.073
373.964
369.369
364.309
358.823
352.994
347.013
341.346
337.116
310.344
315.263
321.929
329.103
336.265
343.192
349.78
355.976
361.752
367.084
371.957
376.353
380.258
383.66
386.55
388.919
390.759
392.061
392.819
393.027
392.678
391.771
390.304
388.279
385.704
382.587
378.943
374.787
370.135
365.012
359.454
353.544
347.478
341.726
337.425
309.733
314.403
320.771
327.645
334.517
341.169
347.498
353.454
359.008
364.139
368.829
373.064
376.828
380.11
382.9
385.191
386.974
388.243
388.99
389.21
388.898
388.054
386.675
384.764
382.328
379.377
375.922
371.98
367.566
362.702
357.426
351.817
346.063
340.617
336.567
310.349
315.224
321.856
329.007
336.153
343.066
349.642
355.828
361.594
366.918
371.781
376.165
380.055
383.437
386.301
388.639
390.441
391.702
392.414
392.574
392.177
391.223
389.712
387.649
385.04
381.898
378.236
374.072
369.422
364.309
358.774
352.898
346.875
341.171
336.912
308.385
312.608
318.394
324.651
330.917
336.988
342.77
348.218
353.303
358.009
362.321
366.227
369.715
372.776
375.403
377.588
379.324
380.602
381.416
381.758
381.622
381.004
379.9
378.312
376.242
373.698
370.689
367.227
363.326
359.006
354.301
349.285
344.133
339.268
335.692
308.928
313.335
319.36
325.87
332.384
338.692
344.698
350.352
355.628
360.506
364.972
369.011
372.612
375.765
378.46
380.691
382.45
383.729
384.52
384.818
384.617
383.912
382.702
380.988
378.773
376.067
372.879
369.224
365.115
360.574
355.634
350.372
344.969
339.862
336.087
308.005
312.099
317.721
323.807
329.905
335.816
341.446
346.751
351.705
356.292
360.497
364.309
367.718
370.716
373.294
375.447
377.166
378.443
379.271
379.643
379.551
378.991
377.96
376.457
374.486
372.052
369.164
365.835
362.076
357.907
353.359
348.506
343.52
338.815
335.37
313.753
319.834
327.988
336.716
345.405
353.789
361.75
369.225
376.179
382.584
388.416
393.652
398.273
402.262
405.607
408.297
410.321
411.672
412.342
412.326
411.621
410.226
408.144
405.38
401.946
397.856
393.131
387.791
381.86
375.366
368.356
360.929
353.314
346.069
340.576
309.381
313.902
320.093
326.789
333.489
339.978
346.155
351.969
357.393
362.405
366.989
371.128
374.809
378.019
380.749
382.99
384.735
385.976
386.709
386.928
386.629
385.811
384.474
382.62
380.257
377.394
374.044
370.222
365.943
361.23
356.119
350.688
345.122
339.862
335.965
308.362
312.582
318.358
324.606
330.863
336.928
342.705
348.147
353.229
357.931
362.237
366.132
369.606
372.646
375.244
377.393
379.086
380.316
381.076
381.362
381.169
380.496
379.34
377.705
375.595
373.018
369.985
366.509
362.604
358.291
353.603
348.615
343.501
338.678
335.138
307.713
311.677
317.146
323.078
329.026
334.794
340.293
345.476
350.318
354.804
358.918
362.649
365.987
368.923
371.451
373.562
375.251
376.509
377.33
377.706
377.632
377.103
376.115
374.67
372.769
370.419
367.628
364.407
360.77
356.734
352.333
347.637
342.815
338.272
334.964
311.653
317.012
324.244
332.013
339.761
347.248
354.363
361.05
367.278
373.022
378.262
382.979
387.155
390.777
393.835
396.318
398.217
399.525
400.236
400.343
399.842
398.733
397.016
394.696
391.779
388.28
384.214
379.598
374.454
368.804
362.692
356.205
349.552
343.233
338.477
307.906
311.928
317.47
323.485
329.517
335.368
340.945
346.201
351.112
355.658
359.824
363.597
366.963
369.914
372.439
374.532
376.186
377.394
378.15
378.45
378.29
377.668
376.583
375.037
373.034
370.584
367.696
364.384
360.66
356.544
352.07
347.31
342.434
337.846
334.503
316.245
323.127
332.333
342.169
351.947
361.375
370.318
378.71
386.508
393.681
400.2
406.038
411.173
415.584
419.255
422.175
424.333
425.719
426.327
426.151
425.19
423.446
420.922
417.627
413.576
408.789
403.288
397.099
390.25
382.773
374.722
366.207
357.485
349.178
342.859
309.448
314.042
320.295
327.043
333.791
340.324
346.542
352.396
357.856
362.901
367.515
371.681
375.384
378.612
381.356
383.608
385.36
386.604
387.335
387.548
387.24
386.408
385.053
383.179
380.79
377.899
374.516
370.658
366.341
361.586
356.43
350.953
345.337
340.029
336.091
315.929
322.714
331.79
341.488
351.13
360.427
369.247
377.523
385.216
392.292
398.725
404.488
409.558
413.917
417.548
420.44
422.582
423.964
424.581
424.427
423.5
421.801
419.334
416.107
412.134
407.435
402.032
395.95
389.216
381.862
373.941
365.561
356.976
348.801
342.582
318.806
326.471
336.727
347.674
358.549
369.028
378.962
388.278
396.928
404.877
412.091
418.54
424.196
429.037
433.043
436.202
438.5
439.928
440.479
440.149
438.936
436.844
433.88
430.054
425.385
419.896
413.615
406.571
398.797
390.33
381.23
371.62
361.785
352.421
345.3
314.653
321.029
329.566
338.698
347.783
356.547
364.865
372.673
379.934
386.618
392.699
398.154
402.961
407.103
410.566
413.338
415.41
416.772
417.418
417.343
416.544
415.021
412.777
409.819
406.16
401.815
396.807
391.158
384.893
378.041
370.652
362.828
354.809
347.176
341.377
309.717
314.421
320.811
327.696
334.576
341.233
347.565
353.525
359.081
364.216
368.911
373.152
376.925
380.22
383.028
385.34
387.149
388.447
389.225
389.477
389.198
388.385
387.035
385.151
382.737
379.803
376.361
372.425
368.011
363.141
357.851
352.222
346.441
340.966
336.89
309.077
313.543
319.639
326.222
332.806
339.182
345.25
350.963
356.293
361.22
365.73
369.809
373.443
376.623
379.341
381.588
383.358
384.642
385.432
385.723
385.508
384.784
383.548
381.802
379.551
376.801
373.566
369.857
365.69
361.085
356.077
350.744
345.268
340.088
336.254
313.505
319.502
327.548
336.165
344.743
353.023
360.885
368.268
375.137
381.464
387.227
392.401
396.97
400.915
404.226
406.89
408.899
410.243
410.916
410.913
410.231
408.868
406.828
404.114
400.739
396.718
392.069
386.813
380.973
374.577
367.671
360.353
352.849
345.71
340.299
309.12
313.569
319.654
326.235
332.821
339.2
345.274
350.994
356.331
361.264
365.777
369.854
373.481
376.645
379.337
381.549
383.273
384.503
385.232
385.457
385.173
384.379
383.076
381.267
378.957
376.158
372.881
369.141
364.954
360.341
355.338
350.024
344.578
339.437
335.638
312.355
317.97
325.521
333.618
341.685
349.477
356.878
363.833
370.307
376.276
381.718
386.612
390.941
394.692
397.851
400.41
402.36
403.691
404.397
404.472
403.912
402.716
400.885
398.422
395.338
391.644
387.36
382.502
377.092
371.156
364.737
357.929
350.944
344.306
339.293
308.712
313.054
318.989
325.401
331.817
338.033
343.95
349.524
354.725
359.537
363.943
367.932
371.49
374.609
377.281
379.497
381.251
382.535
383.34
383.661
383.49
382.824
381.661
380
377.846
375.206
372.09
368.512
364.485
360.03
355.181
350.015
344.709
339.694
335.995
315.164
321.704
330.458
339.817
349.126
358.104
366.624
374.62
382.054
388.895
395.118
400.696
405.609
409.837
413.368
416.188
418.287
419.658
420.292
420.185
419.334
417.74
415.406
412.34
408.555
404.068
398.902
393.079
386.625
379.572
371.969
363.923
355.676
347.825
341.857
308.669
312.946
318.819
325.183
331.558
337.737
343.622
349.166
354.341
359.127
363.508
367.469
370.996
374.078
376.706
378.871
380.566
381.784
382.521
382.77
382.53
381.797
380.573
378.859
376.662
373.992
370.86
367.28
363.268
358.843
354.042
348.939
343.711
338.783
335.16
309.404
313.998
320.249
326.989
333.726
340.247
346.452
352.292
357.74
362.774
367.38
371.543
375.25
378.491
381.258
383.541
385.334
386.628
387.415
387.689
387.445
386.678
385.387
383.572
381.239
378.396
375.055
371.23
366.935
362.192
357.038
351.549
345.913
340.577
336.615
309.663
314.289
320.611
327.442
334.274
340.888
347.182
353.105
358.63
363.734
368.399
372.611
376.354
379.615
382.386
384.657
386.421
387.671
388.401
388.606
388.283
387.428
386.044
384.132
381.7
378.758
375.319
371.398
367.011
362.181
356.945
351.382
345.679
340.286
336.28
309.415
314.009
320.259
326.999
333.737
340.259
346.467
352.311
357.762
362.8
367.407
371.568
375.269
378.498
381.246
383.505
385.268
386.527
387.275
387.508
387.222
386.413
385.081
383.23
380.864
377.993
374.63
370.789
366.486
361.742
356.595
351.123
345.509
340.2
336.261
309.618
314.23
320.533
327.343
334.155
340.75
347.026
352.933
358.442
363.532
368.186
372.386
376.12
379.374
382.139
384.408
386.171
387.422
388.155
388.364
388.047
387.201
385.827
383.927
381.508
378.58
375.156
371.251
366.882
362.07
356.852
351.309
345.626
340.251
336.26
315.359
321.961
330.796
340.241
349.634
358.693
367.289
375.357
382.857
389.758
396.034
401.659
406.611
410.87
414.423
417.258
419.363
420.73
421.353
421.226
420.349
418.72
416.346
413.232
409.393
404.847
399.617
393.725
387.199
380.07
372.389
364.261
355.934
348.006
341.98
312.036
317.513
324.903
332.841
340.755
348.401
355.666
362.494
368.852
374.714
380.059
384.866
389.118
392.801
395.901
398.41
400.319
401.62
402.306
402.373
401.818
400.64
398.84
396.423
393.4
389.783
385.589
380.838
375.549
369.749
363.48
356.833
350.018
343.546
338.667
307.961
311.947
317.479
323.497
329.536
335.395
340.978
346.241
351.157
355.707
359.878
363.654
367.023
369.977
372.504
374.599
376.254
377.463
378.219
378.519
378.358
377.734
376.646
375.097
373.091
370.637
367.744
364.426
360.696
356.574
352.093
347.326
342.442
337.849
334.502
312.684
318.409
326.101
334.345
342.558
350.488
358.021
365.099
371.687
377.759
383.292
388.265
392.659
396.459
399.654
402.232
404.184
405.503
406.182
406.216
405.602
404.339
402.429
399.878
396.695
392.895
388.496
383.518
377.981
371.914
365.359
358.412
351.289
344.518
339.401
308.79
313.101
319.023
325.441
331.869
338.098
344.031
349.619
354.834
359.657
364.071
368.061
371.613
374.715
377.358
379.534
381.236
382.456
383.189
383.431
383.177
382.428
381.182
379.443
377.216
374.512
371.343
367.722
363.665
359.192
354.341
349.185
343.903
338.923
335.257
312.306
317.887
325.402
333.466
341.505
349.269
356.646
363.579
370.033
375.983
381.406
386.282
390.592
394.32
397.455
399.986
401.905
403.204
403.876
403.918
403.325
402.099
400.241
397.757
394.656
390.954
386.668
381.816
376.42
370.508
364.121
357.352
350.414
343.824
338.851
310.728
315.748
322.559
329.893
337.216
344.298
351.033
357.366
363.268
368.715
373.689
378.171
382.146
385.601
388.525
390.909
392.745
394.025
394.744
394.895
394.476
393.484
391.921
389.789
387.097
383.856
380.081
375.787
370.994
365.725
360.019
353.961
347.749
341.859
337.449
313.833
319.941
328.129
336.893
345.617
354.036
362.028
369.534
376.515
382.945
388.799
394.055
398.693
402.696
406.052
408.749
410.778
412.131
412.799
412.779
412.066
410.661
408.565
405.784
402.33
398.218
393.468
388.101
382.139
375.613
368.57
361.107
353.456
346.176
340.656
313.326
319.261
327.229
335.764
344.262
352.466
360.255
367.571
374.378
380.649
386.361
391.492
396.022
399.936
403.222
405.868
407.866
409.206
409.882
409.889
409.224
407.885
405.875
403.199
399.867
395.896
391.303
386.108
380.335
374.011
367.182
359.945
352.523
345.463
340.115
308.515
312.791
318.638
324.958
331.286
337.418
343.258
348.759
353.895
358.646
362.996
366.931
370.438
373.507
376.128
378.295
379.999
381.235
381.996
382.276
382.072
381.381
380.203
378.538
376.392
373.774
370.694
367.166
363.203
358.827
354.072
349.012
343.823
338.928
335.328
307.645
311.599
317.051
322.963
328.892
334.641
340.12
345.284
350.108
354.577
358.676
362.395
365.724
368.656
371.182
373.297
374.993
376.262
377.097
377.489
377.433
376.924
375.958
374.534
372.655
370.326
367.557
364.357
360.739
356.722
352.336
347.653
342.842
338.309
335.007
310.409
315.355
322.051
329.255
336.447
343.402
350.016
356.238
362.036
367.391
372.283
376.696
380.616
384.031
386.931
389.308
391.154
392.459
393.218
393.423
393.069
392.155
390.678
388.641
386.05
382.916
379.252
375.073
370.398
365.248
359.663
353.725
347.631
341.851
337.529
307.682
311.654
317.127
323.059
329.006
334.774
340.27
345.449
350.288
354.769
358.88
362.61
365.949
368.888
371.422
373.542
375.243
376.515
377.351
377.743
377.686
377.173
376.202
374.771
372.883
370.544
367.762
364.548
360.915
356.881
352.476
347.774
342.941
338.387
335.066
309.034
313.434
319.469
326.002
332.543
338.879
344.913
350.595
355.897
360.799
365.283
369.335
372.94
376.086
378.763
380.964
382.681
383.907
384.636
384.863
384.586
383.803
382.515
380.723
378.436
375.662
372.414
368.707
364.557
359.984
355.025
349.756
344.358
339.264
335.505
313.295
319.223
327.177
335.698
344.182
352.372
360.149
367.455
374.253
380.515
386.218
391.341
395.862
399.767
403.041
405.676
407.66
408.987
409.649
409.642
408.962
407.611
405.591
402.906
399.569
395.595
391.002
385.812
380.047
373.735
366.922
359.705
352.306
345.271
339.944
315.804
322.549
331.572
341.214
350.802
360.047
368.818
377.049
384.699
391.737
398.136
403.869
408.913
413.25
416.864
419.744
421.879
423.259
423.878
423.731
422.816
421.133
418.687
415.486
411.543
406.878
401.514
395.474
388.785
381.481
373.612
365.287
356.757
348.635
342.458
316.891
323.973
333.445
343.564
353.62
363.315
372.509
381.135
389.15
396.519
403.214
409.207
414.473
418.992
422.746