/*--------------------------------*- C++ -*----------------------------------*\
| =========                 |                                                 |
| \\      /  F ield         | OpenFOAM: The Open Source CFD Toolbox           |
|  \\    /   O peration     | Version:  2.4.x                                 |
|   \\  /    A nd           | Web:      www.OpenFOAM.org                      |
|    \\/     M anipulation  |                                                 |
\*---------------------------------------------------------------------------*/
FoamFile
{
    version     2.0;
    format      ascii;
    class       volScalarField;
    location    "9990/cladding";
    object      wallHeatFlux;
}
// * * * * * * * * * * * * * * * * * * * * * * * * * * * * * * * * * * * * * //

dimensions      [1 0 -3 0 0 0 0];

internalField   uniform 0;

boundaryField
{
    extremos
    {
        type            calculated;
        value           uniform 0;
    }
    cladding_to_fuel
    {
        type            calculated;
        value           nonuniform List<scalar> 
15680
(
24396
33080
45212.7
57310
65906.1
77946.2
86500.3
98495.5
105292
113807
120592
125654
132438
135787
139144
140794
142456
142415
142388
140660
138947
133817
130416
125309
120212
113403
103159
94632
87822.1
75837.2
63835.6
53540.3
43224.4
32883.8
22516
22571
31224.9
43315.5
53640.7
63938.2
74211
84461.9
92972.2
99750.1
108239
115004
121767
125102
128443
133504
135150
136807
136768
136742
135021
131605
128202
124812
119722
114641
106142
99357.4
90858.5
82354.8
73843.4
61883.8
51624.3
39621.4
31039.5
20708.2
25206.5
35258.5
46954.7
58616.3
68574
81848.7
91757.8
99982.8
111526
118064
126260
132793
137668
142548
144123
149021
148963
148920
148893
147226
143920
142284
135697
130776
125864
117647
109432
101216
89674.8
79783.7
68216.3
58294.9
45018.9
35050.2
25054.2
24944.5
32399.5
44806.1
54690.1
64547
76859.3
84192
93985.6
101293
111061
115887
123179
128007
132841
135223
137615
140019
139980
139956
137491
135040
132604
130181
122856
117995
110683
103372
93597.4
86281.1
76491.6
66689.1
54397.5
44555.7
34690
24797
26019.1
34119.9
45438
58343
69594.8
79203
90405.7
98362.3
107919
115854
123783
128496
134818
139540
144268
145801
147347
147306
147279
145667
142470
139287
136117
131358
123403
115453
109110
99556.2
91603.7
78819.5
69237.2
58027.5
45181.4
33920.5
24246.8
26136.3
35439.9
46575.3
57677.8
70608.7
81652.5
90819.7
99971
109109
118236
125509
130935
136364
139955
143555
147164
148946
148902
148873
147021
141509
137849
134203
128729
121425
115967
106830
97691.8
88548.1
77550.1
66537.3
53656
42600.7
29665.3
22265.3
26343.7
35094.4
48196.6
59802
72832.9
84377.5
94444.7
104494
113078
121653
130221
135894
141569
147248
151491
152860
154242
154197
154167
152713
148393
145528
141237
134075
126921
119774
112630
102597
92557.9
81062
69550.7
58020.1
45014.2
33431.6
23273.9
24338.3
33435.5
44020.2
54572.9
66610.8
77107.1
87580.8
96526.7
105459
114381
120287
126193
132100
136512
139431
140862
143805
142267
142242
140734
139242
136267
131807
127358
121420
113989
105059
97627.9
87187.7
78241.1
67777.1
55787.6
45282.7
34752.3
25705.6
27219.2
36793.9
47933.6
62230.8
73302.1
84346.7
95367.7
106368
115766
125152
132947
139159
143793
150012
153081
156163
157680
157636
157608
156021
154450
149743
146626
138792
132543
124723
116906
107508
96521.9
85525.1
74513.5
63483.5
50842.3
38170.8
27057.7
26136.5
33574.9
46575.8
57678.5
68751.5
79798.1
90821.4
99973
109111
116391
125512
129094
136368
139959
143559
147169
148950
148907
145202
145188
143351
137853
132368
126894
121428
114129
104991
97693.9
86705.1
77551.4
66538.4
53656.8
42601.2
31519.7
24121
25476
35635.4
45762
55858.3
65927.6
78505.5
88526.8
98530.1
108518
113451
123421
128350
133282
138219
140651
143093
143037
145504
145475
142954
137939
132938
130458
125480
118001
113040
103056
95584.5
85592.8
75591.5
65577.3
55546.8
42968.7
32891.6
22787.8
25364.6
35479
47247.7
58981.2
72365.8
82356.1
92325.5
102277
112213
120463
128708
135278
140181
145089
148339
149934
151542
153164
151472
151461
148137
144828
141533
134919
128315
120049
113454
103520
93580.7
83631.5
71995.4
60339.5
46981.9
35272.4
25213.3
26521.3
34447.8
44993
58150.2
68632.6
79090.1
89525.8
99942.4
107716
115481
123240
130996
133514
138657
143807
143737
146293
146250
143611
143597
140987
138392
130587
128016
120230
115063
104669
94269.9
86484.7
76070.6
63017.2
52569.5
44732.2
31607.6
26358.9
22808.1
30927
42270.5
53581.1
63240
74495.6
84109.6
93706.2
101674
109633
115975
122315
127047
130176
134919
134854
136405
137969
136338
134721
133118
128321
125140
118760
112388
106021
98050.7
90078.7
80492.9
72509.1
61290.1
50052.3
38791.8
27505.3
19429.7
25563.5
34054.9
45918.6
57747.3
69544.3
79618.9
91364.2
99707.6
109727
118048
124677
129621
136251
141203
144481
146091
149391
149348
147643
145953
144278
140940
134259
130946
122606
117630
109298
99281.6
89258.9
79226.4
67493.8
55741.2
43964.8
33853.4
23714.8
32887.9
46694.6
63911
79351.5
94749.8
110111
122002
135589
149154
157564
169393
177796
186201
191197
194498
197815
201149
202797
201057
199339
195937
190852
185785
177325
168876
160436
148586
136733
123163
109580
94265.1
78924.1
61834.1
46423
34412.9
24883.4
33149
43041.6
56210.7
67693.1
77498.8
88930.6
97050.9
106803
113260
121353
127803
130980
135800
140628
142195
143774
143734
143708
142064
138802
137188
132320
127463
120981
112869
106394
98283.3
88528.9
78764.9
67345.8
57551.4
46091.1
34603.5
24735.1
23804.1
31711.3
42230.8
52719
63178.9
73613.5
81400
91795.9
99555
107305
115049
117564
122696
127831
130365
132908
135462
135424
135400
135389
132789
127598
125023
119855
112088
106933
99171.9
91409.9
81030.3
73255.7
62853.1
52433
41991.7
31525.7
23661.6
26699.6
36679.8
48292.3
61533.2
74738.5
84594.5
97743.5
107558
115705
125495
131977
138458
144941
149781
152985
156199
157783
157737
156065
156052
152770
149503
142964
138081
131563
123407
115253
105452
95644.6
84178.2
72696.6
61195.8
46360.5
34805.6
24879.5
27484.3
37152.4
50014.7
62839.3
75629.4
88388.7
99515.7
110623
120111
127989
137460
143732
150006
154689
157787
160897
162427
162380
162349
160743
157562
152805
146471
141741
133836
125937
116445
108549
97454.7
86350
73630.3
60889.2
48122.4
35325.5
25710.1
23164
33430.1
43663.8
56432.3
66605.2
76753.9
86881.4
96990.5
104534
114617
119600
127127
129572
137102
139560
139492
141973
144465
139369
139356
136823
134304
129264
124235
116678
111664
101576
94025.6
83929.1
73822.6
63703
51015.9
40856.6
30673.4
23021.9
25104.9
34730.1
46250.7
57737.3
69192.9
80620.9
92024.5
101492
110945
118476
126002
131617
137235
142857
146582
148415
150260
150217
150190
148277
144478
140694
136923
131262
125611
118062
110516
102970
91604.4
80227.2
70746.6
59336.9
45987.9
34525.9
24953.7
25260.3
34945.5
46538.2
58097
71559.1
83057.2
92601.9
102130
111644
119224
126798
132450
140022
143763
147511
149354
151209
151165
149222
149208
145383
141572
137775
130162
122558
114958
109278
99763.9
90244.6
78795.1
67330.2
55846.3
42411.7
30875.9
21242.7
25227.1
35706.8
48249.9
60755.6
73227.2
83578.7
93908.3
104219
112432
122715
130911
137027
141070
147194
151253
153251
155263
155219
153123
153112
151048
146931
142828
138737
130514
122296
114080
105863
95565.3
85257.4
72854.5
60430
50065.9
37588
27167.2
26431.2
35211.1
45719.3
59708.2
70152
80570.8
90967.7
101346
109962
118569
125426
130542
137399
140783
144176
147579
149258
149216
149188
147441
145709
140523
135350
131923
125035
118152
109534
100915
90550.4
80175.5
69787.1
57635.2
45458.6
33253.4
24520.5
26078.5
36784.6
48987.1
62682.5
74814.4
86917.3
97471.5
108007
117007
125997
133462
140926
146876
151317
154254
157202
158651
158605
157064
155539
152521
149518
145019
139021
131522
124029
115027
106023
95498.7
84965
71380.6
59293.2
47181.4
33517.6
24394.4
26952.4
35343.8
47067.7
58756.6
70414
82043
91974.8
101889
111787
121674
128220
134766
139650
144541
147778
149367
150969
152585
150899
149230
147576
145938
139338
136067
127828
121254
113022
103126
94889
83312.8
71720.8
60109.2
46802.4
36810.8
25116.8
25320.7
35418.2
47167.3
58881.7
70564.6
82219.5
92173.7
103784
113703
120270
128502
135063
139959
144860
148104
151359
151300
152918
151228
149552
147893
142925
137970
133027
126430
118176
109923
101670
91745.1
80141.5
68522.1
56883.3
43546
33530.9
23488.9
22676
30208.2
39600
50846.5
60181.7
71372.4
80662.6
88062
97322.4
102831
108338
113844
121216
122998
126651
130314
130264
132088
132065
130196
128341
124638
120948
115406
109872
104344
96954.4
89563.7
80302
71030.6
61746.8
50574.2
41253.6
31910.5
22541.8
24580.3
35084
47305.5
59490.4
71642
82018.8
94116.4
102709
113029
121598
128425
133516
140344
145443
147090
150478
152150
152107
153809
152070
148620
145184
141763
134895
128037
122915
114334
104019
95431.4
83363.4
73016.8
60912.7
48783.5
36625.2
27925.7
20255.6
26983.8
37057.6
48783.7
57118.1
65432.3
73729
82010.4
88607
96866.5
101781
108362
111610
114865
118126
119732
121348
122976
121293
119623
117966
116321
113025
108077
103135
96535.2
91602.1
83337.2
75066.7
66788
56827.1
48522
40200
28504.1
21813.4
24271.7
35028.6
45751.5
56442.4
69788.9
80422.2
91033.1
98950.4
109528
117424
125313
130535
135759
143649
143565
148810
148752
148709
148680
146012
143359
138065
135440
130171
122254
117001
106432
98521.1
87942.4
80020.5
66749.9
53456.3
42811.2
32141
21443.1
22928.2
33089.8
43219.3
55857.7
68462.4
78504.3
85996.1
96001.9
105992
113448
118381
125830
130764
133190
138136
140579
140524
140482
140455
137934
135427
132934
130454
122967
117999
110525
103054
93067.3
85591.3
75590.2
63054.1
50496.4
40440.7
27831.1
20255.7
25649.7
34169.9
46074.2
57943.8
68079.9
79891.9
89981
100052
108414
115074
123421
128385
133352
140010
143301
144917
146544
146501
146472
143091
139725
138057
131350
126338
119651
112969
104603
94548.4
86176.6
76106.7
66024
54230.2
42412.8
28869.8
20393.6
23808.6
33699.6
45539.1
57344.3
69118.1
80863.8
88644.9
100349
108102
117811
123588
131324
135142
140924
142799
144685
146582
146539
146510
142590
140637
136745
132866
127045
119277
113470
105710
95991
86266
76531.9
64821.3
53091.1
43305.7
33497.2
25634.2
24022.6
34288.3
44521.2
56433.5
70021.6
80165.4
90288
98690.7
107082
117161
122141
128817
133801
138789
143783
145404
145348
146996
146968
143578
141891
138529
135181
128465
123447
115054
108355
98268.3
89870.9
79769.6
67956.4
56123.2
45968.5
34085.3
23877.2
26940.9
35328.7
48727.6
60409
72058.6
83679.8
95276
105181
113403
121616
129824
136364
141245
147792
149366
152612
154212
155826
154141
152473
150820
147526
142588
136004
131088
122859
114633
106406
94847.6
84942.5
73357.6
61753
48453.9
36795.8
26780.4
22623.9
33036.6
45152.6
55498.2
65815.5
76107.7
88105.2
96628.3
105139
113640
120413
125465
130521
135581
138933
140581
142241
143914
143889
142167
138746
135340
131946
126851
120049
113253
104742
97948.1
87712.1
77465.5
68927.9
56926.7
44900.5
34574.4
25950.1
23828
32309.6
42461.1
54278.5
64370.3
74437.7
84483.8
92823.6
101151
109469
116097
122723
127669
130941
134221
137510
139134
137419
139070
137384
134036
130702
127381
122395
117417
109089
102442
92433.8
84100.5
74076.3
64038.7
52297.4
42220.9
32120.4
23685.1
26989.9
35392.9
47132.8
60518.4
72188.7
83830.4
95447
105369
115276
121833
131722
136607
143160
148054
151293
152882
156146
156102
156075
154404
151089
147790
142844
137910
131324
123081
114841
106599
96687.6
85097.9
73492.1
60194.6
50217.1
38539.4
26830
25393.5
35520
48991.9
60737.1
72450.2
85817.7
95794.7
105754
114021
123955
130533
138781
143688
148600
151852
153446
156722
156678
156650
154972
151644
146665
143366
138413
131802
125197
115256
105312
95362.5
85403.2
73755.1
62087.3
48716
38676.2
26925.1
26216.5
36671.2
49708.1
60094
73061.4
83391.6
96303
106590
114265
121932
132186
137254
144912
149987
149900
154994
157516
157469
154858
154844
149684
147120
141990
136871
129179
124078
113810
103539
93261.5
82974.6
70079.2
59760.1
46819.3
33848.3
23450.7
26521.1
37097.3
47639.1
60792.6
73910.9
84361.3
94790.1
105200
115594
123351
131103
138851
143982
146501
151645
154185
154125
154080
154050
151424
148815
146221
141030
135850
128067
120290
109899
102123
91724.3
81315.3
70893
57825.6
44731.6
31607.2
23722.8
21304.4
31928.6
42519.6
53078.6
66259.2
76760.2
84595
95056.8
102864
110663
118455
123613
128774
133940
136487
139045
141615
141575
138929
138920
136303
133701
128490
123289
118097
110286
105103
97293.8
86849
76393.1
65922.7
58074.1
44924.6
37034.7
26473
24759.9
33573.6
44122.5
56402.4
66888.9
75592.2
86033.4
96455.1
105108
112001
118890
125777
130917
136063
137728
139404
141093
142794
142769
139276
137538
134074
130623
125440
118524
111613
104705
96050.2
87390.9
76974.6
66544.4
56096.7
43873
33377.3
24611.9
24363.7
31949.7
42548.1
54632.4
65168.6
75679.4
86167.6
95126.4
102563
109993
117416
123332
127747
133669
136594
138029
140975
140936
139411
137902
136406
131927
128959
123003
117055
111113
102170
94727.7
85777.4
75312.5
66341.2
55846.1
43818.7
31763
24218.2
26454.5
35759.9
49692.1
62032.1
74338.4
86614.6
97319.4
108005
117132
126249
133820
139852
147423
151927
154906
157898
159370
160858
160830
157755
156229
151656
147097
142551
134949
127353
118225
109095
98422.9
87739.9
75502
63243
50958.8
38644.8
27845
26296.7
38534.5
50733.3
64642.2
78513.1
90607.4
102676
112983
123275
131820
138627
145433
152241
157324
160689
164065
165729
165683
165654
163918
160473
157044
153631
148506
139936
131372
124540
114248
102218
90174.5
79850.6
66034.5
53929.4
40053.3
29626.7
23911.8
31854.7
44542.7
54016.1
66636.9
76057.8
87041.5
94843.1
104213
111993
118192
124389
130588
133645
136710
139786
141302
142832
141237
139657
136523
133402
128725
124058
119400
111606
103814
96020.2
86647.8
77266.4
66294.6
55304.1
44291.3
33252.3
25353.7
25942.9
35177.8
46230.8
59097.5
70085.3
81046.7
91984.9
101065
110132
117355
124574
129959
137176
140740
144312
146069
147838
147796
147769
145933
142288
140482
136864
131434
124187
116945
107878
98808.3
91564.9
78817.9
67887.5
56938.8
45968
34971.1
25787.1
23567.7
32966.3
44686
56371.3
65679.4
77308
86571.7
95818.8
105052
114274
121157
125710
130267
134829
139398
141653
143920
143879
143853
141521
139205
134582
132292
125372
118459
111551
104646
95414.5
88506.2
76931
65339.7
56064.6
44432.4
32772.8
23426.3
28034.6
36763.3
48958.1
61116.4
74985.4
87078.7
97406.7
107716
118010
126557
133366
140174
146983
150340
153707
157086
158751
160432
158679
158667
155223
151795
146656
141529
134686
126122
117561
107268
98700.2
86659.5
74602.2
62524.3
50421.8
38290.1
27868
22282.2
30825.2
42760.3
52952
64821.7
74958.4
85073.4
93469.9
101854
108532
115206
121878
125167
130154
133457
136770
136718
138367
136656
136646
134964
131609
126579
121559
116547
109853
103161
93084.1
84693.7
76295.6
64492.7
54367.9
44222.4
34052.2
25558.1
25098.5
35107.5
46753.7
58365.6
69946.3
79836.1
91366.5
101216
109393
117562
124070
130576
137083
140292
143510
146738
146681
148286
148257
144950
143304
140026
133466
128565
122024
113840
107308
97473.4
89286.2
77782.8
66263.7
54725.2
43163.3
33236.2
23282.4
23733.7
31617.2
42105.3
52562.4
62991.3
70774
81158.8
91524.1
99260.4
104379
114709
117217
122333
127453
132579
132515
135062
135023
134998
134987
129798
127218
124651
116899
111753
106613
98874.9
91135.9
83393.2
70427.4
60053.3
52275.4
41865.5
31430.9
20969.3
20703.2
29303.7
37876.1
48141.6
58379.1
66876.6
77068.7
85530.5
90561.8
97296.2
104025
109048
115774
119098
122430
124071
124024
123989
123968
122261
120567
118886
115518
110461
105412
98666.2
91922.3
85177.6
76724.8
68263.6
59791.1
47884.3
39376.6
30848.1
22295.8
24143.6
32737.8
44745
56717.2
66940.9
77140.1
87317.9
95766.9
104204
112631
119345
124355
129367
134383
137706
139338
140983
142640
140915
139205
137510
134130
130764
124012
118967
110529
103793
93652
85208.4
76757.5
63174.4
52985.8
41065.6
30830.4
22282.8
26781.3
37461
49887.6
62277.4
74633.9
85185.9
99260.9
107997
116722
127204
134145
141085
146265
151450
154882
158326
158265
159978
158191
156420
154666
149412
145930
140703
133726
126756
116268
107539
97041.2
84768
72478
60167.3
47831.6
35466.7
24845
19005.7
29840
37931.9
45998.9
56746
64768
75468.3
80763.5
88741.5
96709.4
101986
107261
112538
115140
117749
120367
122995
120288
120267
120258
117590
114934
112289
106979
101677
96379
88405.5
83110
72447.3
67143.2
56457.2
48443.7
37719.6
29667.2
21592.1
25344.9
35451.6
47211.2
60619.6
72310
83972.2
93932
103874
113801
122043
128610
135175
141742
146646
149892
153149
154755
154711
154684
153009
151351
146381
143089
136481
129882
123289
115033
105109
95178.2
85238.2
73612.6
60292.7
48622
36923.3
26873.2
24157.6
32756.8
44771.3
58470.6
68698.6
78902.3
89084.8
99248.8
107688
116117
122834
129548
134560
137874
141197
144529
146172
146129
144401
144387
140991
137609
132541
125784
120736
112293
105553
95407.4
86959.8
76798.8
64916.3
53013.7
42799
29132.8
20579.4
27123.6
37638.3
49621.6
64572.1
76482.6
88364
101716
112054
122376
129704
138518
144351
150188
156031
160396
163287
163225
164663
164634
163139
160179
155751
151339
145455
139582
130746
121912
111589
101260
89430.4
77584.9
64225.7
52334.1
38916.7
28460.4
25620.7
33598.1
46341.5
57451.8
68532.1
79585.8
90616
101626
109445
117257
125063
131284
137506
140573
145228
146736
148256
148214
149763
146598
145024
141889
135614
130927
124672
116844
109019
99612
90199.6
80778.6
69760.6
57137.1
46076.9
34990.3
25466.2
25609.8
34116.6
46001.9
57852.1
69670.6
81460.5
91530.2
101582
109927
116573
124904
131543
136499
139775
143061
146356
147981
147939
147911
146218
142859
139515
134502
129502
124510
117843
107811
99461.1
91107.4
79369.6
67615.7
57534.1
45738.2
33914.5
22060.7
24890.4
33158.1
45537.1
55812.8
66060.8
76284.3
86486.1
98725.8
106836
112885
120981
127025
131023
137072
139038
143059
145047
145006
144980
142926
140888
136822
132769
126684
120607
112492
106424
98310
86092.6
77964.6
67773.5
57565.5
45279
32963.5
24740.8
20002.7
31087.8
39921
50942.1
61933.2
72897.1
79424.7
90348.7
96852.1
105548
109842
116332
122822
124931
129240
131367
131317
131280
131257
131248
126878
124708
120362
116026
111699
105188
98678.5
89975
81265.8
72548
63818.9
50669.3
41903.2
33115.4
22093.4
25557.9
35750
45909.1
57736.1
69531.5
81298.7
91349.3
99692.3
109712
118032
124661
131289
136235
139506
142785
146073
147694
147651
145944
145930
142577
139237
134234
129241
120900
114243
105909
95891.9
87551.7
77519.6
65788
54036.5
43951.9
32151.1
23707.6
26084.5
36486.6
49457.9
59791.4
75289.3
82970.8
95816.6
106051
113687
123896
131517
139135
144178
146655
151713
154210
156720
156675
156646
154066
151501
146384
143849
136189
131107
123462
115819
105602
95377.9
82564.4
74898.3
59464.9
49176.2
36271.8
25927.5
23896.9
32829.5
43222.6
55072.7
66890.6
77195
88960
97740.5
106508
113788
121062
126859
132657
135514
139851
142727
144144
145574
144078
142597
141132
136741
133833
127995
120694
114871
107578
97335.1
90037
78301.6
68028.4
56257.5
45944.4
34122.7
25239.8
25905.4
36236.1
46533.2
60241.6
70475.5
80684.9
92587.6
102755
111197
119629
128054
133064
139781
143095
146417
149750
151393
151349
151321
149608
146211
142828
137758
132700
125950
119206
109058
100611
92160.7
80287.2
70107.3
58199.1
46266.9
34306.5
24032.2
25127.6
33474
45134.9
56761.3
68356.4
79923.2
88139.2
99663.2
107850
116027
122542
129056
135571
138784
142007
145239
145184
146793
145117
145106
143461
138533
135267
130363
123818
115627
109090
99246.5
89396.4
81193.7
69664.2
58115.1
46542.6
34942.4
26642.5
25829.4
37097.4
49940.6
61137.1
73910.3
85048
96162.3
105656
116734
123006
130871
138733
143408
148089
152777
154294
157414
157368
155749
154146
150970
147809
143073
136759
130454
120973
114679
105199
94119.2
83028.2
70324.4
59198.9
46449.3
33669.9
24067.6
27095.7
35532.3
47319.5
60759.8
72478.7
82486.3
94154.6
104122
112397
122339
128922
135505
140417
145335
150259
151855
151796
153419
151721
151707
148374
143389
138417
133457
125169
118556
110276
101996
90365.1
80397.4
67064
57064.4
45364.7
33637.5
23563.5
27144.8
37291.1
49096.4
62557
72604.1
85999.7
95997.5
107660
115942
125895
132484
139073
143990
150585
153843
157111
157051
157007
158650
155298
153633
148644
145339
140376
132081
125462
117175
107211
95565.6
87263.5
73912.7
62220.2
50503.9
37074.1
26983
26187.7
36340.2
47911.4
59448.2
70954.2
83878.6
93886.5
103877
112410
120935
128014
135092
140733
146379
149163
150524
153332
151855
151825
151812
147517
143237
138971
133284
126172
119067
110529
100554
92010.9
80582.8
69139.5
57677
44747.9
34678.7
24582.1
22027.8
30261.7
41215.9
52138
63030.8
73897.1
82006.6
90101.9
98185.4
106259
111604
119669
125013
127645
130286
132936
135597
135559
132824
132813
130106
127412
124731
116636
111260
105890
97807.4
89722.9
81633.9
73537.8
59979.3
51855.1
40982.4
32819.2
21895.5
21903.7
31831.7
43715
53578.6
65397
75207.1
84996.2
92792.9
102551
110325
116125
121925
127726
131567
135416
137313
139221
139182
139158
137189
135234
131333
127444
121605
115774
109949
102163
94375.4
86584.1
74847.1
67036.2
55265.6
45446.5
33625.4
23753.3
20710.1
29313.7
39611.4
49878.3
58399.6
66900.4
75383.1
85561.4
92304
97331.9
104064
109088
115817
119143
120775
124117
124070
125735
124014
124005
122311
117231
115561
110501
103749
98701.3
91954.7
85207.3
76751.4
68287
58102.5
49611.1
39389.7
30858.3
20587.5
23163.8
30858.3
41095
53866.7
64042.7
74194.4
84324.8
91884.2
99433.2
106974
114509
119497
124487
126943
131944
134416
136898
136858
134297
131751
129218
126699
124192
119161
111602
106586
96495.1
91482.6
81384.4
71275.9
61153.9
48464.5
38302.6
28117
17905.8
23756.3
34119.5
45930.8
56227.2
69450.7
79690.1
89907.7
98634.3
107348
116052
123280
130506
134801
139103
143412
144806
147675
147633
147607
144674
143218
140315
135964
130162
124368
117118
109871
99691.1
90971.7
80776
69096.6
58868.7
47146.6
35396.3
26567
31131.9
43201.1
56956.1
72393.5
84346.2
99708.4
113320
125191
135332
145461
153872
162282
168985
173989
179002
182324
182255
183906
183874
182158
178758
173675
168608
161851
153402
144960
136522
124669
112809
99227.3
85626.8
73717.6
58351.8
42949.6
32665.9
29009.3
39213.6
52788.8
66323.5
79821.3
91590
103334
115056
125070
135072
141691
149997
156618
161561
164832
168114
169731
171363
169653
167962
166287
161271
156269
151281
144623
134608
126278
114578
104556
92837.4
79413.7
67658.4
54185.8
40680.9
30533.3
23740.6
33885.2
45689
55767.5
67506.1
79215.8
89216.6
97517.7
105807
115764
122359
128953
132200
137128
140391
143664
145279
146908
145214
143535
141871
138553
133578
128615
123660
115370
107080
98789.4
90494.1
78837.1
67163.4
57150.2
47116.5
35373.7
25285.8
25402.1
33840
47319
59071.3
69106.7
80801.7
90790.4
100761
110717
117308
125571
130483
137070
141990
145247
146845
148455
148411
148382
146701
143369
140050
135078
128449
121828
115214
106932
98649.5
87016.6
77046.2
67063
55385.3
42003.8
31955.3
21880.2
23081.8
32286.2
43763.6
55206.7
66618.7
75708.4
84779.2
93833.5
102874
109619
116360
123099
129838
132027
134226
138709
140929
138618
140865
138584
136317
134064
129551
122776
118283
109246
102485
95724.8
86681.4
77629.3
63994.6
54911.2
45809.4
34392.3
25239.7
20839.4
29497
39859.6
50191.9
60496.4
69049.8
77585.5
87827.9
94613.1
101391
108164
113219
118276
121622
124976
126627
128288
128251
128227
128216
124799
121395
118002
112909
107823
101031
94241.4
85736.6
77226.5
68708.4
58460
49915.5
37907.8
29322.1
20713.1
23842.4
34243.2
44610.9
56432.5
66739.2
77021.1
88760.6
97522.4
106271
113536
120795
126579
130895
136686
139545
140947
143828
143788
143762
142284
139354
136438
132068
126242
120424
114612
105864
97113.5
88358.5
78121.7
67871.3
57604
44358.8
34042.9
23699.5
26968.7
35029
45752
56443.2
67105.7
80423.6
91034.9
98952.4
109531
114758
122650
130538
135763
140993
143570
146158
148757
148714
146030
146016
140708
138069
135444
127518
122257
114345
106434
98523.2
87944.2
77354.5
66751
53457.1
42811.8
34819.8
24123.7
27220.7
37395.4
49233.5
62731.3
76192.2
87929.1
97951.9
109644
117947
127924
134530
141134
147741
152675
155940
160892
160831
160786
162433
160747
157404
154077
149090
144116
135800
129166
119180
109191
100877
89191.3
75805.3
64082.1
50646.7
38869
27059.5
25072.2
35070.5
46704.3
59969.6
73199.4
83074.3
94588.2
104423
114244
122398
128894
137040
141885
146736
149947
151521
154755
153064
153034
151375
148086
143167
139907
135013
126835
118662
110492
102320
92494.5
81006.5
67848.2
57980.4
43117.7
33201.2
21596.6
21220.6
30036.5
42353.5
51110
61603.1
70313.1
80760.6
89434.9
98096
104996
110144
117038
120440
125592
129006
130686
130636
130598
132314
128821
128823
123615
118418
114973
108052
102878
95964.3
87304
78638.2
68215.2
59528.6
50827.9
40355.3
29858
21091.7
26065.5
35808.4
45518.6
60069.4
69716.8
80960.3
92179.5
101762
111331
119275
127214
133541
138261
142988
147722
149256
150803
150761
150734
150724
147522
142731
137954
134793
126827
120473
112515
102948
93375.3
82182.3
70973.9
58131.8
48496.1
35600.3
25910.4
25853.3
33428.3
47047
59111
71142.9
81634.3
92104
101047
109976
118896
126304
132207
138112
142520
145437
148363
149803
149759
148232
146721
145225
140749
136286
130337
122898
115465
106534
97601.5
88664.3
78215.4
66247.4
55766.5
43755.8
31717.2
24183.2
24608.7
29504.9
41748.2
53955.9
63681.6
73383.9
83065.7
92729.7
99941
107145
111910
119108
126304
128646
130998
133360
135733
135694
135670
135659
133240
128411
123595
118788
113990
109199
99555.9
92339.4
85119.9
73026.8
63352.9
53662.9
41511.6
31776.3
22015.1
27265.7
35254.5
46416.2
59143.5
70240.7
82905.8
93951.5
103387
112808
120631
128448
134678
139326
143979
148640
151729
151669
151624
151595
148422
145265
142123
138994
132718
124871
118611
109190
99766.8
88753.8
79315.9
66690.9
55634
44555
33449.9
23910.2
29938.4
39882.8
53112
66301.3
81109.8
92575.5
105668
117086
126840
136583
144673
151119
157568
164022
168845
170402
173613
173564
171897
171885
168618
165367
158858
154000
145875
137758
128002
116603
106840
93778.2
82345
69244.2
54465.9
41304.5
29761.4
24255
34620
44951.9
58706.1
68974.7
79218.9
91161.7
99645.9
108118
116581
125036
130064
135096
140132
143467
146812
146755
146713
148391
144967
143263
139869
134782
128000
122933
114457
107692
97507.2
89027.2
77113
68612.9
56665.3
44693.6
32693.8
24107.8
25434.5
36303.5
47137.6
61560.4
72328
84875.7
95592.8
104489
115172
124044
129316
136384
143453
148733
152229
153946
155676
157420
155603
153802
150229
148459
143126
137805
130704
121818
112933
104046
93360.2
84460.5
71952.8
61224.5
48672
36089.9
25281.5
27396.9
37637.7
52969.9
66550.5
78389.9
91902.3
103685
115447
123798
133835
140478
148812
153766
160417
163699
166994
168616
168569
168540
166843
163479
160131
155113
150109
143428
133379
125020
114970
103223
93156.9
79687.6
66194.9
54373.4
40822
30639.3
21068.2
28704.2
40137.3
47719.6
59093.9
68536.7
76058
83566.2
92960.6
98551.9
104140
111619
115315
117127
120836
122665
124504
124468
124446
122550
120667
118797
113166
109431
103816
98206.7
92600.1
83212.3
75710.2
66307
56891.1
47459.3
38008.5
28535.3
20941.2
26078.7
36785
47456.8
59625.7
71761.9
83869.1
94427.4
103446
113970
121446
128916
134869
140823
145269
148209
151161
152613
154078
152538
149504
147995
143481
138981
134492
126991
119495
110489
101481
90953.1
80414.9
69863.1
57773.8
45660
33517.9
24394.6
24285.1
36396.1
46738.7
58779
70787
82766
92997.3
103210
111689
118443
128622
133654
138689
143729
147066
148704
152063
152019
151990
148562
146856
143458
136657
133284
124794
116309
109537
99339.9
90850.8
80639.2
68697.2
56734.9
44748.5
32734
24137.5
19195.6
27896.3
38310.5
48693.8
57312
65909.3
74488.2
83051.1
89872.2
96685.7
101769
106852
111936
115302
118675
120337
122009
121976
121954
120228
118515
116814
111689
108291
103181
96356.7
89533.2
82708.5
75880.4
67320.5
58749.1
48433.6
38096.7
29468.6
20816.8
26216.7
34052.1
44476.2
57482.1
70453.2
80787
91099.3
98793.1
109074
116747
124414
132078
137154
142234
144736
144666
147192
147149
147120
147107
144528
139382
134249
129127
121432
113741
106053
95775.7
88082.2
77790.2
64889.3
54564.4
46819.9
33848.6
23450.9
19039.9
27176.1
35286
46081.8
54141.3
62181.2
70204.1
80909.1
86207.6
94192.7
96792.5
104769
107372
112665
115281
115225
117860
117827
117807
117798
115125
112463
107134
104493
99179.4
93870.7
85881
80574
72577.7
64573.6
53865.6
48530.9
37787.5
29720.5
21631
26600.8
35958.1
48407.2
60819.8
73199.4
83994
96319.6
107070
116255
123880
129954
137573
145192
148182
151181
154191
155672
155626
155596
152500
150961
146356
141764
135644
127991
120344
112700
103512
92772.9
82023.6
69711.3
57378.4
43468.2
32634.1
23327.2
27623.9
35485.8
49226.8
62928.4
74629.6
86303.2
95993.3
105667
115326
124974
132662
140348
144137
149880
153685
155555
157437
157391
155417
155402
151518
147649
141851
136064
128343
120628
112916
103256
93590.6
81965.6
70325.2
58665.7
45025.2
35272.6
25493.2
25272.2
35349.7
47075.2
58765.4
72100.5
82053.5
91985.5
103570
111798
120017
126565
134776
139660
144550
147787
151035
152637
152594
152567
150898
147587
144291
139350
134421
127841
121268
113037
103141
94903.3
83326.4
71733.3
60120.3
46811.6
35144.8
25122.2
29371.4
39127.6
52107
65048
77954.1
90829.2
102057
113264
124454
132401
140343
148283
154612
157727
164070
165599
167142
167094
167063
165443
162234
157435
154257
147879
139904
131935
122359
112782
101588
88769
77548.2
64691.9
51809.5
37275.9
27572
30317.3
40387.6
52440.3
66471.1
78452.7
92414.4
104340
114239
126126
133997
143862
151726
157595
161476
167360
169271
171197
171149
171117
169114
165139
161180
157237
149326
143417
135523
123644
113756
103864
91963.7
80048
66109.5
52142.6
38142.8
28125.9
22847.4
29675.4
41038.7
54645.2
63667.1
74938
83916.2
92878.1
99563.5
108503
117433
119589
126261
130681
135109
135044
137243
139454
137180
137171
134927
130448
128231
121525
114826
108132
101441
94749.7
85798.6
76838.9
63343.2
54352.5
43076.2
34042.5
24983.1
30720.2
42629.5
57905.1
73135
86624.7
101778
113509
125220
136913
145214
155198
163492
170102
175036
179981
183257
184868
184816
184784
183092
179739
176405
171407
163063
156411
148085
138080
128074
114690
101291
87875
72744.1
59275.3
44078.4
32235.2
24395.9
33079.8
43473.5
55572.8
67639.6
76213
86498.9
96765.7
105290
113805
120589
125651
132435
135783
139140
140790
142452