/*--------------------------------*- C++ -*----------------------------------*\
| =========                 |                                                 |
| \\      /  F ield         | OpenFOAM: The Open Source CFD Toolbox           |
|  \\    /   O peration     | Version:  2.4.x                                 |
|   \\  /    A nd           | Web:      www.OpenFOAM.org                      |
|    \\/     M anipulation  |                                                 |
\*---------------------------------------------------------------------------*/
FoamFile
{
    version     2.0;
    format      ascii;
    class       volScalarField;
    location    "10000/cladding";
    object      T;
}
// * * * * * * * * * * * * * * * * * * * * * * * * * * * * * * * * * * * * * //

dimensions      [0 0 0 1 0 0 0];

internalField   nonuniform List<scalar> 
55720
(
307.797
311.746
317.215
323.162
329.13
334.921
340.442
345.646
350.509
355.011
359.138
362.876
366.212
369.136
371.64
373.715
375.356
376.555
377.306
377.606
377.451
376.838
375.767
374.241
372.265
369.846
366.995
363.725
360.05
355.989
351.576
346.88
342.072
337.553
334.268
307.756
311.717
317.186
323.126
329.085
334.868
340.38
345.577
350.432
354.927
359.048
362.781
366.114
369.036
371.539
373.616
375.259
376.463
377.221
377.529
377.383
376.78
375.721
374.207
372.242
369.836
366.997
363.738
360.074
356.023
351.618
346.931
342.129
337.615
334.332
307.527
311.424
316.808
322.651
328.513
334.2
339.621
344.733
349.509
353.934
357.995
361.679
364.978
367.882
370.386
372.482
374.162
375.421
376.249
376.641
376.59
376.091
375.141
373.739
371.889
369.595
366.866
363.713
360.147
356.188
351.867
347.256
342.521
338.063
334.825
307.504
311.384
316.756
322.591
328.446
334.127
339.541
344.644
349.413
353.83
357.884
361.562
364.855
367.755
370.255
372.348
374.028
375.286
376.115
376.509
376.46
375.964
375.019
373.622
371.777
369.49
366.768
363.622
360.064
356.113
351.801
347.197
342.468
338.015
334.78
307.771
311.683
317.124
323.048
328.997
334.77
340.273
345.46
350.307
354.794
358.908
362.634
365.961
368.879
371.378
373.452
375.093
376.295
377.053
377.361
377.216
376.616
375.559
374.049
372.089
369.688
366.856
363.605
359.949
355.908
351.513
346.837
342.047
337.546
334.276
307.508
311.421
316.811
322.657
328.521
334.21
339.634
344.748
349.526
353.953
358.012
361.693
364.984
367.875
370.36
372.43
374.081
375.304
376.094
376.444
376.351
375.811
374.822
373.384
371.502
369.181
366.431
363.264
359.691
355.731
351.418
346.82
342.104
337.668
334.445
307.55
311.413
316.778
322.617
328.481
334.171
339.595
344.709
349.486
353.911
357.969
361.649
364.938
367.829
370.313
372.383
374.034
375.257
376.047
376.398
376.306
375.766
374.778
373.341
371.459
369.139
366.391
363.224
359.652
355.694
351.381
346.784
342.069
337.634
334.414
307.802
311.746
317.212
323.159
329.127
334.918
340.439
345.644
350.506
355.009
359.136
362.873
366.21
369.134
371.637
373.712
375.352
376.55
377.301
377.6
377.443
376.829
375.758
374.231
372.253
369.833
366.982
363.711
360.036
355.974
351.56
346.866
342.058
337.539
334.255
307.536
311.433
316.819
322.666
328.53
334.22
339.644
344.758
349.536
353.964
358.026
361.711
365.01
367.914
370.415
372.508
374.184
375.437
376.26
376.645
376.587
376.082
375.125
373.717
371.861
369.562
366.828
363.671
360.102
356.141
351.819
347.207
342.472
338.015
334.777
307.522
311.4
316.773
322.612
328.472
334.157
339.576
344.684
349.457
353.878
357.934
361.614
364.908
367.808
370.307
372.397
374.073
375.326
376.149
376.536
376.48
375.978
375.025
373.621
371.769
369.474
366.746
363.595
360.033
356.078
351.762
347.156
342.426
337.973
334.737
307.724
311.682
317.144
323.073
329.023
334.795
340.297
345.485
350.331
354.819
358.933
362.66
365.988
368.907
371.407
373.483
375.126
376.331
377.092
377.403
377.262
376.666
375.614
374.107
372.152
369.754
366.925
363.676
360.022
355.981
351.587
346.91
342.119
337.613
334.337
307.757
311.665
317.101
323.02
328.964
334.731
340.229
345.412
350.254
354.737
358.847
362.571
365.896
368.811
371.31
373.384
375.026
376.23
376.99
377.302
377.161
376.566
375.514
374.01
372.056
369.661
366.835
363.59
359.94
355.904
351.514
346.843
342.058
337.561
334.293
307.421
311.303
316.661
322.472
328.301
333.955
339.344
344.425
349.172
353.57
357.607
361.272
364.556
367.452
369.952
372.05
373.738
375.009
375.855
376.267
376.24
375.768
374.847
373.476
371.656
369.394
366.697
363.575
360.041
356.113
351.821
347.236
342.524
338.084
334.856
307.449
311.336
316.7
322.518
328.355
334.017
339.414
344.502
349.256
353.662
357.705
361.376
364.665
367.565
370.068
372.168
373.858
375.129
375.975
376.386
376.357
375.882
374.957
373.582
371.758
369.49
366.787
363.659
360.117
356.181
351.882
347.291
342.575
338.133
334.906
307.711
311.652
317.095
323.01
328.947
334.707
340.199
345.377
350.215
354.694
358.801
362.521
365.843
368.755
371.25
373.319
374.956
376.155
376.91
377.216
377.07
376.469
375.413
373.905
371.948
369.551
366.725
363.481
359.833
355.801
351.418
346.754
341.977
337.487
334.222
307.318
311.178
316.499
322.27
328.058
333.673
339.026
344.072
348.787
353.157
357.169
360.813
364.079
366.961
369.452
371.544
373.232
374.506
375.358
375.782
375.769
375.315
374.414
373.067
371.274
369.041
366.376
363.287
359.788
355.896
351.643
347.099
342.43
338.032
334.836
307.295
311.151
316.465
322.229
328.009
333.616
338.96
343.998
348.707
353.07
357.076
360.714
363.976
366.854
369.341
371.431
373.117
374.39
375.243
375.667
375.656
375.204
374.306
372.963
371.174
368.946
366.285
363.203
359.711
355.827
351.582
347.044
342.378
337.981
334.783
307.806
311.745
317.21
323.156
329.125
334.916
340.437
345.642
350.505
355.007
359.134
362.872
366.208
369.132
371.635
373.71
375.349
376.547
377.297
377.596
377.439
376.824
375.752
374.224
372.246
369.825
366.973
363.702
360.026
355.965
351.551
346.856
342.048
337.53
334.246
307.542
311.443
316.832
322.681
328.549
334.241
339.668
344.785
349.567
353.996
358.06
361.747
365.046
367.949
370.448
372.538
374.21
375.458
376.275
376.654
376.589
376.077
375.113
373.699
371.837
369.532
366.793
363.632
360.06
356.096
351.772
347.159
342.424
337.968
334.73
307.537
311.413
316.786
322.629
328.492
334.182
339.604
344.716
349.492
353.916
357.975
361.656
364.951
367.85
370.347
372.435
374.107
375.355
376.172
376.553
376.49
375.981
375.021
373.61
371.751
369.451
366.718
363.561
359.995
356.037
351.719
347.111
342.381
337.928
334.693
307.69
311.645
317.099
323.018
328.957
334.717
340.21
345.387
350.225
354.704
358.811
362.532
365.855
368.769
371.267
373.341
374.985
376.192
376.955
377.272
377.136
376.547
375.502
374.004
372.058
369.67
366.851
363.614
359.97
355.941
351.557
346.892
342.11
337.614
334.346
307.742
311.647
317.079
322.993
328.931
334.693
340.186
345.365
350.202
354.682
358.789
362.51
365.832
368.747
371.245
373.319
374.962
376.168
376.932
377.247
377.111
376.52
375.475
373.976
372.028
369.639
366.82
363.581
359.937
355.906
351.522
346.855
342.074
337.58
334.314
307.601
311.474
316.856
322.715
328.598
334.307
339.75
344.88
349.673
354.113
358.184
361.874
365.172
368.069
370.557
372.63
374.279
375.499
376.283
376.626
376.524
375.972
374.97
373.519
371.621
369.285
366.518
363.334
359.744
355.767
351.435
346.82
342.087
337.637
334.405
307.787
311.703
317.15
323.081
329.037
334.815
340.324
345.518
350.369
354.862
358.98
362.71
366.039
368.959
371.459
373.532
375.172
376.372
377.126
377.43
377.28
376.674
375.612
374.094
372.128
369.719
366.88
363.622
359.959
355.911
351.51
346.828
342.033
337.527
334.254
307.515
311.412
316.792
322.631
328.489
334.172
339.59
344.699
349.473
353.895
357.952
361.633
364.925
367.821
370.313
372.395
374.059
375.299
376.108
376.48
376.408
375.89
374.923
373.506
371.642
369.338
366.602
363.446
359.881
355.926
351.614
347.015
342.294
337.853
334.626
307.52
311.386
316.748
322.581
328.436
334.117
339.533
344.637
349.407
353.825
357.878
361.554
364.842
367.735
370.225
372.306
373.969
375.209
376.019
376.392
376.323
375.807
374.842
373.428
371.568
369.267
366.536
363.384
359.824
355.874
351.566
346.971
342.254
337.816
334.592
307.664
311.548
316.949
322.831
328.737
334.468
339.932
345.083
349.896
354.352
358.439
362.141
365.449
368.352
370.842
372.911
374.554
375.762
376.532
376.856
376.733
376.158
375.13
373.652
371.728
369.364
366.571
363.36
359.745
355.745
351.391
346.756
342.006
337.541
334.297
307.593
311.532
316.955
322.84
328.742
334.468
339.927
345.074
349.883
354.336
358.42
362.12
365.426
368.327
370.815
372.883
374.525
375.734
376.503
376.829
376.707
376.134
375.109
373.634
371.712
369.352
366.563
363.356
359.746
355.75
351.402
346.772
342.026
337.563
334.318
307.507
311.397
316.771
322.605
328.458
334.135
339.549
344.652
349.422
353.841
357.895
361.573
364.865
367.762
370.257
372.343
374.013
375.261
376.079
376.46
376.399
375.891
374.934
373.527
371.673
369.379
366.651
363.501
359.942
355.992
351.683
347.086
342.366
337.924
334.698
307.652
311.596
317.033
322.936
328.858
334.603
340.081
345.245
350.069
354.537
358.634
362.345
365.66
368.568
371.061
373.131
374.773
375.978
376.743
377.061
376.929
376.344
375.306
373.816
371.878
369.5
366.693
363.468
359.838
355.824
351.456
346.807
342.043
337.563
334.306
307.501
311.366
316.725
322.552
328.4
334.075
339.484
344.582
349.346
353.759
357.808
361.481
364.769
367.662
370.154
372.239
373.908
375.156
375.974
376.357
376.298
375.794
374.84
373.437
371.587
369.297
366.574
363.43
359.877
355.933
351.63
347.037
342.322
337.884
334.661
307.704
311.597
317.012
322.909
328.831
334.577
340.055
345.219
350.044
354.512
358.608
362.319
365.634
368.542
371.034
373.105
374.746
375.951
376.715
377.032
376.899
376.314
375.275
373.783
371.845
369.466
366.658
363.432
359.802
355.787
351.418
346.769
342.005
337.527
334.274
307.782
311.707
317.157
323.09
329.047
334.826
340.336
345.531
350.383
354.877
358.996
362.727
366.057
368.976
371.475
373.547
375.184
376.381
377.132
377.431
377.276
376.665
375.598
374.075
372.104
369.691
366.847
363.586
359.92
355.87
351.468
346.786
341.991
337.485
334.21
307.773
311.703
317.154
323.086
329.04
334.818
340.327
345.52
350.371
354.863
358.981
362.711
366.041
368.959
371.458
373.529
375.167
376.364
377.114
377.414
377.26
376.65
375.583
374.061
372.091
369.679
366.837
363.577
359.913
355.864
351.463
346.783
341.989
337.485
334.211
307.779
311.697
317.144
323.073
329.027
334.803
340.31
345.502
350.353
354.844
358.961
362.69
366.018
368.936
371.435
373.506
375.143
376.34
377.091
377.391
377.238
376.628
375.562
374.041
372.072
369.661
366.82
363.561
359.898
355.851
351.452
346.772
341.981
337.478
334.206
307.554
311.488
316.902
322.773
328.662
334.375
339.821
344.956
349.754
354.198
358.272
361.965
365.265
368.161
370.646
372.713
374.356
375.567
376.34
376.672
376.556
375.992
374.976
373.512
371.602
369.253
366.477
363.283
359.685
355.703
351.368
346.75
342.017
337.565
334.329
307.631
311.506
316.896
322.764
328.657
334.376
339.828
344.967
349.769
354.216
358.294
361.989
365.291
368.189
370.676
372.745
374.388
375.599
376.373
376.703
376.587
376.02
375.002
373.535
371.621
369.269
366.488
363.29
359.688
355.7
351.36
346.737
341.999
337.545
334.309
307.519
311.419
316.802
322.645
328.506
334.191
339.612
344.723
349.5
353.924
357.983
361.664
364.957
367.852
370.342
372.421
374.081
375.316
376.119
376.484
376.406
375.881
374.906
373.483
371.613
369.303
366.563
363.402
359.834
355.877
351.563
346.963
342.243
337.801
334.575
307.529
311.394
316.758
322.593
328.451
334.136
339.554
344.662
349.434
353.855
357.909
361.586
364.875
367.768
370.256
372.333
373.993
375.228
376.032
376.398
376.322
375.799
374.827
373.406
371.54
369.234
366.497
363.34
359.777
355.824
351.514
346.918
342.202
337.764
334.542
307.501
311.387
316.759
322.589
328.438
334.113
339.523
344.624
349.391
353.807
357.859
361.536
364.827
367.725
370.222
372.311
373.986
375.238
376.061
376.449
376.395
375.894
374.943
373.543
371.695
369.406
366.683
363.538
359.982
356.035
351.728
347.131
342.412
337.97
334.744
307.721
311.617
317.038
322.942
328.869
334.621
340.105
345.274
350.104
354.577
358.677
362.391
365.709
368.618
371.112
373.182
374.822
376.025
376.786
377.1
376.962
376.371
375.326
373.829
371.883
369.498
366.683
363.451
359.814
355.792
351.418
346.763
341.994
337.511
334.255
307.686
311.632
317.078
322.991
328.924
334.68
340.167
345.341
350.175
354.651
358.754
362.472
365.792
368.704
371.199
373.271
374.912
376.116
376.877
377.191
377.053
376.462
375.416
373.918
371.971
369.584
366.766
363.53
359.89
355.864
351.486
346.826
342.051
337.562
334.298
307.485
311.35
316.706
322.528
328.372
334.041
339.445
344.539
349.298
353.707
357.753
361.424
364.71
367.603
370.096
372.183
373.857
375.109
375.933
376.322
376.27
375.773
374.826
373.431
371.588
369.305
366.588
363.45
359.902
355.962
351.663
347.073
342.36
337.924
334.701
307.768
311.701
317.154
323.085
329.039
334.816
340.324
345.516
350.367
354.859
358.977
362.706
366.035
368.954
371.452
373.524
375.162
376.359
377.11
377.411
377.257
376.648
375.582
374.061
372.092
369.681
366.84
363.58
359.917
355.869
351.469
346.789
341.996
337.492
334.219
307.516
311.427
316.816
322.663
328.528
334.218
339.643
344.758
349.537
353.964
358.025
361.707
364.999
367.892
370.378
372.452
374.104
375.33
376.123
376.477
376.387
375.85
374.864
373.429
371.548
369.229
366.48
363.313
359.74
355.779
351.464
346.864
342.145
337.706
334.481
307.548
311.413
316.778
322.618
328.481
334.171
339.595
344.709
349.486
353.91
357.969
361.648
364.938
367.83
370.315
372.387
374.04
375.266
376.06
376.414
376.325
375.789
374.805
373.371
371.492
369.175
366.428
363.263
359.692
355.734
351.421
346.823
342.107
337.67
334.449
307.467
311.347
316.707
322.525
328.361
334.024
339.422
344.512
349.27
353.677
357.721
361.39
364.674
367.565
370.055
372.137
373.806
375.053
375.872
376.256
376.199
375.696
374.746
373.347
371.503
369.218
366.502
363.365
359.82
355.885
351.591
347.009
342.306
337.879
334.663
307.462
311.317
316.661
322.472
328.304
333.964
339.358
344.443
349.195
353.596
357.635
361.299
364.579
367.466
369.953
372.034
373.702
374.949
375.768
376.154
376.099
375.599
374.652
373.257
371.416
369.137
366.426
363.294
359.755
355.825
351.537
346.961
342.262
337.839
334.625
307.549
311.479
316.888
322.756
328.642
334.352
339.796
344.928
349.724
354.166
358.239
361.929
365.227
368.121
370.604
372.669
374.308
375.515
376.285
376.613
376.494
375.925
374.907
373.439
371.527
369.177
366.4
363.206
359.61
355.629
351.297
346.684
341.955
337.507
334.274
307.622
311.494
316.881
322.745
328.635
334.35
339.798
344.935
349.734
354.178
358.254
361.947
365.246
368.142
370.627
372.692
374.332
375.539
376.309
376.635
376.515
375.944
374.923
373.453
371.537
369.184
366.403
363.205
359.604
355.619
351.283
346.665
341.932
337.482
334.25
307.733
311.654
317.091
323.007
328.947
334.71
340.204
345.384
350.223
354.704
358.812
362.533
365.855
368.767
371.261
373.329
374.964
376.16
376.911
377.213
377.061
376.455
375.394
373.88
371.918
369.515
366.684
363.436
359.784
355.75
351.364
346.699
341.922
337.432
334.168
307.737
311.654
317.091
323.007
328.947
334.711
340.206
345.386
350.226
354.707
358.815
362.537
365.859
368.771
371.265
373.333
374.968
376.164
376.914
377.216
377.064
376.458
375.396
373.881
371.919
369.516
366.684
363.435
359.783
355.748
351.362
346.697
341.919
337.428
334.164
307.47
311.354
316.717
322.538
328.377
334.042
339.443
344.536
349.295
353.704
357.75
361.42
364.704
367.594
370.081
372.161
373.825
375.068
375.88
376.258
376.194
375.685
374.728
373.323
371.473
369.183
366.462
363.321
359.773
355.835
351.54
346.958
342.255
337.829
334.613
307.475
311.33
316.677
322.492
328.329
333.993
339.392
344.481
349.237
353.642
357.683
361.349
364.63
367.517
370.003
372.081
373.744
374.986
375.8
376.178
376.116
375.609
374.654
373.252
371.404
369.118
366.401
363.264
359.719
355.786
351.495
346.916
342.216
337.793
334.579
307.508
311.435
316.835
322.691
328.563
334.26
339.692
344.813
349.598
354.029
358.093
361.777
365.068
367.958
370.438
372.501
374.14
375.35
376.124
376.457
376.345
375.785
374.775
373.318
371.417
369.079
366.314
363.132
359.549
355.581
351.262
346.662
341.945
337.509
334.284
307.589
311.455
316.83
322.683
328.56
334.263
339.7
344.826
349.616
354.051
358.119
361.805
365.099
367.991
370.473
372.537
374.178
375.388
376.162
376.494
376.38
375.818
374.806
373.346
371.441
369.099
366.329
363.143
359.554
355.582
351.257
346.65
341.929
337.489
334.264
307.78
311.706
317.158
323.091
329.047
334.827
340.336
345.531
350.383
354.877
358.996
362.726
366.056
368.975
371.474
373.546
375.184
376.381
377.131
377.431
377.276
376.665
375.597
374.075
372.103
369.69
366.847
363.585
359.92
355.87
351.468
346.785
341.991
337.485
334.21
307.593
311.526
316.945
322.826
328.726
334.45
339.907
345.052
349.859
354.311
358.393
362.092
365.396
368.296
370.782
372.848
374.487
375.693
376.459
376.782
376.656
376.079
375.051
373.573
371.65
369.288
366.497
363.29
359.68
355.686
351.34
346.713
341.97
337.511
334.268
307.649
311.528
316.924
322.799
328.699
334.424
339.882
345.028
349.835
354.287
358.369
362.069
365.373
368.272
370.758
372.824
374.463
375.669
376.434
376.756
376.629
376.052
375.023
373.543
371.618
369.255
366.463
363.255
359.644
355.649
351.302
346.674
341.932
337.474
334.235
307.464
311.341
316.697
322.512
328.346
334.006
339.402
344.49
349.244
353.65
357.692
361.361
364.645
367.536
370.029
372.114
373.787
375.039
375.864
376.253
376.203
375.707
374.763
373.37
371.531
369.252
366.541
363.407
359.865
355.932
351.639
347.058
342.354
337.926
334.71
307.445
311.3
316.642
322.449
328.276
333.93
339.319
344.4
349.147
353.545
357.581
361.242
364.521
367.408
369.897
371.98
373.652
374.904
375.729
376.121
376.073
375.581
374.641
373.253
371.42
369.147
366.443
363.317
359.783
355.857
351.573
346.999
342.302
337.88
334.667
307.728
311.653
317.091
323.007
328.945
334.708
340.201
345.38
350.219
354.7
358.808
362.528
365.85
368.762
371.256
373.324
374.959
376.156
376.907
377.209
377.059
376.454
375.393
373.88
371.919
369.518
366.687
363.439
359.789
355.755
351.37
346.706
341.929
337.439
334.175
307.817
311.755
317.222
323.171
329.143
334.938
340.462
345.67
350.535
355.04
359.169
362.909
366.246
369.172
371.676
373.751
375.391
376.589
377.339
377.637
377.479
376.863
375.789
374.26
372.279
369.856
367.002
363.728
360.049
355.985
351.567
346.869
342.058
337.536
334.249
307.74
311.652
317.086
323.002
328.941
334.704
340.198
345.378
350.217
354.698
358.806
362.527
365.848
368.76
371.254
373.322
374.957
376.153
376.904
377.205
377.054
376.448
375.387
373.873
371.911
369.509
366.677
363.429
359.778
355.743
351.358
346.693
341.916
337.426
334.163
307.477
311.365
316.732
322.557
328.4
334.069
339.474
344.57
349.332
353.744
357.792
361.464
364.748
367.637
370.124
372.201
373.861
375.098
375.905
376.276
376.205
375.689
374.725
373.312
371.455
369.159
366.433
363.287
359.734
355.793
351.496
346.912
342.208
337.781
334.565
307.48
311.337
316.685
322.502
328.342
334.009
339.411
344.503
349.26
353.667
357.71
361.377
364.658
367.544
370.028
372.103
373.762
374.999
375.807
376.179
376.11
375.596
374.634
373.225
371.372
369.079
366.358
363.217
359.669
355.734
351.441
346.862
342.163
337.74
334.528
307.628
311.563
316.991
322.883
328.794
334.529
339.997
345.152
349.969
354.43
358.52
362.225
365.535
368.438
370.927
372.994
374.633
375.837
376.6
376.918
376.786
376.202
375.166
373.679
371.746
369.373
366.572
363.354
359.732
355.727
351.369
346.731
341.978
337.508
334.258
307.671
311.555
316.958
322.842
328.749
334.482
339.948
345.101
349.915
354.373
358.461
362.165
365.472
368.374
370.862
372.928
374.566
375.77
376.532
376.85
376.718
376.134
375.098
373.611
371.678
369.307
366.507
363.29
359.671
355.667
351.312
346.677
341.927
337.463
334.219
307.733
311.639
317.067
322.978
328.912
334.671
340.161
345.337
350.173
354.651
358.756
362.474
365.794
368.704
371.197
373.264
374.898
376.094
376.846
377.149
376.999
376.395
375.336
373.824
371.865
369.466
366.638
363.394
359.747
355.716
351.335
346.675
341.902
337.417
334.157
307.479
311.371
316.741
322.569
328.415
334.086
339.494
344.592
349.357
353.771
357.82
361.492
364.777
367.665
370.15
372.223
373.88
375.112
375.913
376.277
376.2
375.677
374.706
373.288
371.424
369.123
366.392
363.242
359.686
355.743
351.444
346.86
342.156
337.73
334.515
307.488
311.344
316.693
322.512
328.354
334.023
339.428
344.522
349.282
353.691
357.735
361.403
364.684
367.569
370.051
372.124
373.779
375.011
375.813
376.179
376.104
375.583
374.616
373.2
371.341
369.043
366.317
363.172
359.621
355.683
351.39
346.811
342.112
337.69
334.479
307.663
311.601
317.036
322.939
328.861
334.608
340.086
345.251
350.077
354.546
358.643
362.355
365.67
368.578
371.07
373.138
374.777
375.979
376.739
377.052
376.915
376.325
375.281
373.786
371.843
369.46
366.649
363.42
359.787
355.77
351.402
346.752
341.988
337.509
334.252
307.686
311.574
316.982
322.872
328.785
334.524
339.995
345.153
349.972
354.434
358.525
362.232
365.542
368.446
370.935
373.001
374.638
375.839
376.599
376.913
376.776
376.188
375.146
373.654
371.715
369.337
366.531
363.308
359.682
355.673
351.312
346.671
341.917
337.448
334.202
307.47
311.393
316.784
322.628
328.488
334.173
339.592
344.702
349.477
353.899
357.955
361.631
364.917
367.802
370.28
372.342
373.982
375.194
375.972
376.31
376.205
375.653
374.653
373.206
371.315
368.989
366.235
363.066
359.495
355.54
351.233
346.645
341.94
337.514
334.296
307.565
311.425
316.791
322.633
328.501
334.195
339.623
344.74
349.522
353.95
358.011
361.692
364.982
367.871
370.351
372.416
374.058
375.271
376.049
376.386
376.279
375.724
374.721
373.269
371.374
369.041
366.281
363.105
359.526
355.563
351.247
346.65
341.937
337.505
334.286
307.512
311.407
316.785
322.622
328.478
334.159
339.576
344.683
349.455
353.877
357.933
361.612
364.904
367.801
370.294
372.377
374.043
375.286
376.098
376.473
376.405
375.89
374.926
373.513
371.652
369.352
366.619
363.465
359.902
355.949
351.638
347.039
342.319
337.877
334.651
307.515
311.38
316.741
322.572
328.425
334.104
339.517
344.62
349.388
353.804
357.856
361.531
364.819
367.712
370.203
372.285
373.95
375.193
376.006
376.382
376.316
375.804
374.843
373.433
371.576
369.279
366.55
363.401
359.843
355.895
351.589
346.994
342.278
337.84
334.616
307.614
311.554
316.982
322.873
328.782
334.515
339.98
345.133
349.947
354.406
358.494
362.198
365.507
368.41
370.9
372.969
374.611
375.818
376.586
376.909
376.783
376.206
375.177
373.696
371.769
369.403
366.608
363.395
359.778
355.775
351.42
346.784
342.031
337.563
334.314
307.68
311.567
316.974
322.862
328.775
334.512
339.982
345.138
349.955
354.416
358.506
362.213
365.523
368.428
370.919
372.989
374.631
375.839
376.606
376.928
376.801
376.222
375.191
373.708
371.777
369.408
366.609
363.392
359.772
355.765
351.406
346.765
342.009
337.539
334.291
307.448
311.321
316.673
322.483
328.311
333.965
339.356
344.439
349.189
353.59
357.629
361.294
364.577
367.468
369.961
372.049
373.725
374.982
375.812
376.208
376.164
375.676
374.739
373.354
371.523
369.25
366.545
363.418
359.882
355.953
351.665
347.088
342.387
337.961
334.746
307.426
311.282
316.622
322.424
328.246
333.894
339.278
344.353
349.096
353.49
357.522
361.181
364.458
367.345
369.834
371.92
373.595
374.852
375.683
376.081
376.04
375.555
374.622
373.242
371.416
369.15
366.451
363.332
359.803
355.882
351.602
347.032
342.337
337.916
334.703
307.405
311.278
316.623
322.422
328.239
333.882
339.261
344.333
349.073
353.464
357.495
361.155
364.435
367.327
369.824
371.92
373.607
374.878
375.724
376.138
376.113
375.644
374.727
373.36
371.547
369.292
366.603
363.49
359.965
356.046
351.766
347.194
342.498
338.075
334.862
307.372
311.241
316.578
322.369
328.177
333.811
339.182
344.244
348.975
353.359
357.383
361.036
364.31
367.198
369.691
371.785
373.47
374.741
375.587
376.003
375.981
375.515
374.602
373.241
371.433
369.184
366.502
363.396
359.88
355.97
351.699
347.135
342.444
338.024
334.811
307.756
311.664
317.099
323.017
328.96
334.726
340.223
345.406
350.248
354.731
358.841
362.564
365.887
368.801
371.296
373.366
375.002
376.199
376.951
377.254
377.104
376.498
375.437
373.923
371.961
369.558
366.725
363.475
359.822
355.785
351.396
346.728
341.947
337.454
334.19
307.722
311.652
317.092
323.008
328.945
334.707
340.2
345.379
350.217
354.697
358.805
362.525
365.847
368.759
371.253
373.321
374.957
376.154
376.906
377.209
377.06
376.456
375.397
373.885
371.925
369.525
366.696
363.449
359.8
355.766
351.382
346.718
341.941
337.451
334.187
307.511
311.416
316.801
322.644
328.505
334.191
339.612
344.723
349.5
353.924
357.982
361.662
364.953
367.846
370.332
372.406
374.061
375.289
376.085
376.443
376.357
375.824
374.842
373.412
371.536
369.222
366.477
363.314
359.745
355.788
351.476
346.878
342.162
337.725
334.502
307.502
311.428
316.825
322.678
328.547
334.241
339.669
344.787
349.57
353.999
358.061
361.743
365.034
367.924
370.406
372.472
374.116
375.33
376.111
376.45
376.346
375.794
374.793
373.344
371.45
369.119
366.36
363.185
359.606
355.642
351.325
346.726
342.01
337.574
334.35
307.535
311.398
316.76
322.595
328.454
334.14
339.56
344.669
349.442
353.863
357.919
361.596
364.884
367.775
370.26
372.333
373.987
375.216
376.012
376.371
376.286
375.755
374.775
373.347
371.473
369.161
366.419
363.259
359.693
355.739
351.43
346.836
342.122
337.689
334.469
307.584
311.449
316.821
322.671
328.546
334.247
339.682
344.805
349.592
354.025
358.091
361.776
365.07
367.963
370.446
372.514
374.158
375.374
376.154
376.493
376.387
375.833
374.829
373.376
371.479
369.144
366.38
363.2
359.615
355.646
351.323
346.717
341.996
337.556
334.332
307.763
311.674
317.112
323.033
328.979
334.748
340.248
345.434
350.278
354.764
358.876
362.6
365.925
368.84
371.336
373.406
375.043
376.24
376.991
377.293
377.142
376.535
375.473
373.957
371.992
369.587
366.752
363.499
359.843
355.803
351.411
346.739
341.955
337.46
334.194
307.376
311.243
316.577
322.365
328.17
333.802
339.17
344.232
348.962
353.346
357.369
361.023
364.297
367.185
369.679
371.772
373.458
374.729
375.576
375.992
375.971
375.506
374.594
373.234
371.428
369.18
366.5
363.396
359.881
355.973
351.703
347.143
342.458
338.045
334.84
307.34
311.203
316.53
322.309
328.105
333.728
339.088
344.14
348.861
353.236
357.252
360.899
364.168
367.05
369.541
371.632
373.316
374.587
375.435
375.853
375.834
375.372
374.465
373.11
371.31
369.069
366.395
363.3
359.794
355.895
351.635
347.082
342.403
337.993
334.788
307.728
311.629
317.054
322.961
328.893
334.649
340.136
345.309
350.142
354.618
358.721
362.437
365.755
368.665
371.156
373.223
374.858
376.054
376.807
377.11
376.962
376.36
375.303
373.794
371.837
369.441
366.616
363.375
359.731
355.703
351.325
346.668
341.898
337.416
334.159
307.73
311.681
317.137
323.064
329.012
334.782
340.283
345.47
350.315
354.802
358.916
362.642
365.969
368.886
371.385
373.458
375.099
376.3
377.058
377.366
377.221
376.62
375.564
374.054
372.095
369.695
366.864
363.614
359.959
355.919
351.525
346.851
342.062
337.56
334.288
307.467
311.346
316.706
322.525
328.361
334.024
339.422
344.512
349.269
353.676
357.72
361.39
364.677
367.573
370.07
372.161
373.84
375.099
375.931
376.329
376.285
375.797
374.859
373.472
371.637
369.361
366.651
363.518
359.974
356.038
351.741
347.154
342.444
338.009
334.788
307.725
311.624
317.047
322.952
328.882
334.636
340.122
345.293
350.125
354.598
358.7
362.416
365.733
368.643
371.136
373.204
374.842
376.043
376.8
377.109
376.967
376.372
375.322
373.819
371.869
369.479
366.66
363.423
359.783
355.759
351.383
346.726
341.957
337.475
334.219
307.441
311.306
316.655
322.465
328.295
333.951
339.342
344.424
349.172
353.572
357.609
361.273
364.554
367.445
369.938
372.027
373.705
374.964
375.797
376.196
376.156
375.67
374.737
373.355
371.525
369.255
366.553
363.427
359.892
355.964
351.675
347.096
342.391
337.961
334.743
307.483
311.382
316.757
322.589
328.439
334.114
339.525
344.627
349.395
353.812
357.863
361.537
364.823
367.711
370.194
372.265
373.918
375.146
375.942
376.3
376.217
375.687
374.709
373.284
371.414
369.107
366.37
363.215
359.655
355.708
351.407
346.821
342.116
337.689
334.473
307.507
311.364
316.716
322.541
328.389
334.064
339.475
344.575
349.34
353.753
357.801
361.472
364.755
367.641
370.123
372.194
373.846
375.074
375.871
376.231
376.149
375.621
374.645
373.222
371.354
369.049
366.315
363.163
359.607
355.663
351.364
346.781
342.078
337.654
334.441
307.512
311.44
316.842
322.699
328.573
334.271
339.703
344.825
349.611
354.043
358.108
361.793
365.085
367.977
370.459
372.525
374.167
375.381
376.159
376.496
376.388
375.832
374.827
373.374
371.476
369.14
366.377
363.197
359.614
355.646
351.325
346.722
342.003
337.564
334.337
307.514
311.417
316.801
322.644
328.505
334.191
339.612
344.723
349.5
353.924
357.983
361.663
364.954
367.848
370.335
372.411
374.067
375.298
376.096
376.455
376.372
375.842
374.862
373.434
371.56
369.247
366.504
363.341
359.772
355.815
351.503
346.905
342.187
337.749
334.525
307.53
311.393
316.754
322.588
328.446
334.13
339.548
344.656
349.428
353.848
357.902
361.578
364.866
367.757
370.243
372.317
373.973
375.203
376.002
376.363
376.282
375.754
374.777
373.352
371.481
369.172
366.433
363.275
359.71
355.758
351.45
346.856
342.143
337.71
334.49
307.597
311.464
316.841
322.696
328.575
334.281
339.72
344.848
349.639
354.076
358.145
361.833
365.128
368.022
370.507
372.574
374.218
375.432
376.21
376.546
376.437
375.879
374.871
373.414
371.512
369.172
366.403
363.218
359.629
355.654
351.327
346.717
341.991
337.548
334.321
307.548
311.453
316.845
322.698
328.57
334.265
339.696
344.815
349.6
354.032
358.098
361.786
365.085
367.987
370.485
372.572
374.24
375.483
376.294
376.667
376.595
376.076
375.105
373.684
371.815
369.504
366.761
363.594
360.019
356.052
351.726
347.112
342.377
337.92
334.682
307.549
311.424
316.8
322.645
328.513
334.206
339.633
344.748
349.527
353.954
358.015
361.698
364.994
367.893
370.388
372.473
374.14
375.384
376.195
376.569
376.5
375.983
375.016
373.598
371.733
369.427
366.688
363.527
359.956
355.995
351.674
347.065
342.334
337.881
334.647
307.651
311.602
317.046
322.952
328.877
334.625
340.105
345.271
350.098
354.567
358.666
362.379