/*--------------------------------*- C++ -*----------------------------------*\
| =========                 |                                                 |
| \\      /  F ield         | OpenFOAM: The Open Source CFD Toolbox           |
|  \\    /   O peration     | Version:  2.4.x                                 |
|   \\  /    A nd           | Web:      www.OpenFOAM.org                      |
|    \\/     M anipulation  |                                                 |
\*---------------------------------------------------------------------------*/
FoamFile
{
    version     2.0;
    format      ascii;
    class       volScalarField;
    location    "9970/coolant";
    object      epsilon;
}
// * * * * * * * * * * * * * * * * * * * * * * * * * * * * * * * * * * * * * //

dimensions      [0 2 -3 0 0 0 0];

internalField   nonuniform List<scalar> 
109760
(
0.00655272
0.00200472
0.000781585
0.000364984
0.000195498
0.000116907
7.71188e-05
5.62731e-05
4.60591e-05
4.27838e-05
4.46915e-05
5.0778e-05
6.02372e-05
7.22433e-05
8.59363e-05
0.000100504
0.000115268
0.000129733
0.000143578
0.000156625
0.000168803
0.000180111
0.000190591
0.000200313
0.000209359
0.000217813
0.000225755
0.00023325
0.000240346
0.000247074
0.000253468
0.000259578
0.000265471
0.000271214
0.000276632
0.00656672
0.00200966
0.00080848
0.000426084
0.000300949
0.000275886
0.000294431
0.000330784
0.000371814
0.000411096
0.000446005
0.000475947
0.0005013
0.000522758
0.000541069
0.000556888
0.000570775
0.000583184
0.000594471
0.000604918
0.00061474
0.000624095
0.000633099
0.000641837
0.000650378
0.00065878
0.000667082
0.000675279
0.000683311
0.000691085
0.000698549
0.000705786
0.000713054
0.000720699
0.000728631
0.0133107
0.00674368
0.00469385
0.00396389
0.00365992
0.0035182
0.00345207
0.00342532
0.00342004
0.00342662
0.0034392
0.00345347
0.00346624
0.00347496
0.00347787
0.00347397
0.00346292
0.003445
0.00342092
0.00339162
0.00335819
0.00332169
0.0032831
0.00324329
0.00320298
0.00316282
0.00312332
0.00308493
0.00304788
0.00301213
0.00297727
0.00294271
0.00290772
0.00287377
0.00284003
0.00692878
0.00239524
0.0013968
0.00118455
0.00116638
0.00119222
0.00122318
0.00125029
0.00127283
0.00129192
0.00130869
0.00132405
0.00133865
0.00135293
0.00136718
0.00138163
0.00139638
0.00141152
0.00142708
0.00144309
0.00145955
0.00147641
0.00149363
0.00151117
0.00152902
0.00154721
0.00156574
0.00158451
0.00160318
0.00162135
0.00163877
0.00165571
0.00167324
0.00169272
0.00171489
0.0134165
0.0064513
0.004407
0.00371366
0.00343237
0.00330338
0.00324317
0.00321919
0.00321615
0.00322568
0.00324332
0.00326651
0.00329368
0.00332381
0.00335617
0.00339011
0.00342502
0.00346029
0.00349532
0.00352959
0.00356267
0.00359421
0.00362394
0.00365173
0.00367752
0.00370137
0.00372343
0.00374388
0.00376288
0.00378046
0.00379647
0.00381066
0.00382315
0.00383377
0.00384954
0.00656236
0.00200496
0.000800116
0.000412584
0.000280936
0.000249108
0.000262168
0.000295116
0.00033462
0.000373621
0.000408908
0.000439505
0.000465556
0.000487653
0.000506504
0.000522776
0.000537045
0.000549784
0.000561377
0.000572121
0.00058224
0.000591905
0.000601242
0.000610347
0.000619303
0.000628177
0.000637008
0.00064579
0.000654463
0.000662946
0.000671214
0.000679386
0.000687734
0.000696593
0.00070547
0.00655209
0.00199753
0.000776716
0.000361718
0.000192817
0.000113804
7.26289e-05
4.92683e-05
3.50811e-05
2.59753e-05
1.98586e-05
1.5591e-05
1.25168e-05
1.02414e-05
8.51757e-06
7.18561e-06
6.13924e-06
5.30629e-06
4.6372e-06
4.09788e-06
3.66547e-06
3.32564e-06
3.07092e-06
2.89972e-06
2.81579e-06
2.82785e-06
2.94934e-06
3.19808e-06
3.59579e-06
4.16743e-06
4.94004e-06
5.94151e-06
7.19728e-06
8.72668e-06
1.04934e-05
0.00658151
0.00202554
0.00085051
0.000500207
0.000407552
0.000409494
0.000445767
0.000490622
0.000533415
0.00057056
0.000601523
0.000627098
0.00064839
0.000666404
0.000681956
0.000695677
0.000708035
0.000719374
0.000729941
0.000739904
0.00074938
0.000758441
0.000767126
0.000775461
0.000783468
0.00079117
0.000798592
0.000805748
0.000812626
0.000819183
0.000825377
0.000831207
0.000836811
0.000842459
0.000848755
0.00655225
0.0020021
0.00077939
0.000363331
0.000193803
0.000114435
7.30589e-05
4.95874e-05
3.53502e-05
2.62453e-05
2.01843e-05
1.60421e-05
1.31911e-05
1.12786e-05
1.01152e-05
9.61329e-06
9.74988e-06
1.05401e-05
1.20155e-05
1.42059e-05
1.71242e-05
2.07549e-05
2.5049e-05
2.99236e-05
3.52696e-05
4.09627e-05
4.68758e-05
5.28917e-05
5.89108e-05
6.48545e-05
7.06643e-05
7.63027e-05
8.17461e-05
8.69793e-05
9.1894e-05
0.0073399
0.00282848
0.00187917
0.00167836
0.00164789
0.0016546
0.00166829
0.00168217
0.00169471
0.00170506
0.00171241
0.00171587
0.00171449
0.0017077
0.00169542
0.00167801
0.00165615
0.00163069
0.00160253
0.00157255
0.0015415
0.00151002
0.00147862
0.00144764
0.00141735
0.00138796
0.00135965
0.00133265
0.00130718
0.00128339
0.00126112
0.00123969
0.00121802
0.00119441
0.00117003
0.00710116
0.0026426
0.00170933
0.0015217
0.0015033
0.00151855
0.00153703
0.00155263
0.00156496
0.00157449
0.00158081
0.00158327
0.00158119
0.00157412
0.001562
0.00154516
0.00152423
0.00150002
0.00147339
0.00144516
0.00141602
0.00138658
0.00135727
0.00132845
0.0013004
0.00127336
0.00124752
0.00122291
0.0011994
0.00117654
0.00115377
0.00113061
0.00110757
0.00108613
0.00107171
0.00761854
0.00312543
0.00219887
0.00199213
0.00194349
0.0019321
0.00193085
0.00193304
0.00193768
0.00194376
0.00194949
0.00195309
0.00195315
0.0019486
0.00193899
0.00192434
0.00190505
0.00188178
0.00185533
0.0018265
0.00179607
0.00176474
0.00173307
0.00170148
0.00167032
0.00163985
0.0016103
0.00158191
0.00155493
0.00152956
0.00150578
0.00148311
0.00146077
0.00143692
0.00141397
0.00746977
0.00296335
0.00202294
0.00181649
0.00177534
0.00177153
0.00177537
0.0017807
0.00178728
0.00179434
0.00180052
0.00180439
0.00180474
0.00180072
0.00179193
0.00177838
0.00176047
0.00173882
0.0017142
0.00168741
0.00165918
0.00163016
0.00160086
0.00157172
0.00154308
0.00151522
0.00148837
0.0014627
0.0014382
0.0014146
0.00139143
0.00136808
0.00134455
0.00132126
0.00130355
0.0254406
0.0121467
0.0078125
0.00640696
0.00584366
0.00557585
0.0054412
0.00537664
0.00535343
0.00535521
0.00537335
0.00540284
0.00544058
0.0054845
0.00553312
0.0055852
0.00563964
0.00569537
0.00575142
0.0058069
0.00586106
0.0059133
0.00596316
0.00601031
0.00605463
0.00609611
0.00613489
0.00617116
0.00620503
0.00623647
0.00626525
0.00629131
0.00631464
0.00633667
0.00635967
0.00657059
0.0020224
0.000829577
0.000458558
0.000346894
0.00033529
0.000365014
0.000409105
0.000454409
0.000495257
0.000529971
0.000558676
0.000582173
0.000601341
0.00061692
0.000629485
0.000639473
0.000647251
0.000653122
0.000657363
0.000660225
0.000661939
0.000662724
0.000662781
0.000662295
0.000661427
0.000660319
0.000659086
0.000657813
0.000656539
0.000655261
0.000653931
0.000652568
0.000651173
0.00065082
0.0065985
0.00204761
0.000896261
0.000571081
0.000500079
0.000516949
0.000560987
0.000608271
0.000650358
0.000685401
0.000714002
0.000737441
0.000756931
0.000773469
0.000787808
0.000800469
0.000811801
0.000822033
0.000831316
0.000839758
0.000847434
0.000854399
0.000860702
0.000866397
0.000871541
0.000876202
0.000880456
0.000884376
0.000888016
0.000891392
0.000894489
0.000897259
0.000899776
0.000902091
0.00090573
0.00671294
0.00218208
0.00112234
0.000877049
0.000855785
0.000892338
0.000936366
0.000974508
0.00100515
0.00102948
0.00104933
0.00106608
0.00108072
0.00109403
0.00110658
0.00111872
0.00113071
0.00114268
0.00115471
0.00116681
0.00117896
0.00119113
0.00120324
0.00121524
0.00122708
0.00123874
0.00125019
0.00126142
0.00127234
0.00128282
0.00129275
0.0013021
0.00131111
0.00132029
0.00133078
0.00717905
0.00264886
0.00166875
0.00145092
0.00141674
0.00142528
0.00144199
0.001459
0.00147484
0.0014896
0.00150358
0.00151698
0.00152993
0.00154244
0.00155437
0.00156553
0.00157567
0.0015846
0.00159216
0.00159828
0.00160296
0.00160625
0.00160828
0.00160916
0.00160908
0.00160823
0.00160679
0.00160495
0.00160286
0.00160057
0.001598
0.0015949
0.00159135
0.00158676
0.00158698
0.0308855
0.0133926
0.00858117
0.00715707
0.00659503
0.0063295
0.00619825
0.00614037
0.00612528
0.00613655
0.00616493
0.00620482
0.00625281
0.00630669
0.00636477
0.00642561
0.00648794
0.00655059
0.0066125
0.00667275
0.00673062
0.00678554
0.00683714
0.00688523
0.0069298
0.00697105
0.00700931
0.00704493
0.00707798
0.00710828
0.00713538
0.00715954
0.00718142
0.00720406
0.00722984
0.00657081
0.00201065
0.000822158
0.000454413
0.000343879
0.000331382
0.000358743
0.000399883
0.000442517
0.000481422
0.000514996
0.000543315
0.000567093
0.000587186
0.000604395
0.000619391
0.000632727
0.000644839
0.000656068
0.000666674
0.00067685
0.000686734
0.000696428
0.000706009
0.000715541
0.00072508
0.000734652
0.000744231
0.000753726
0.000763028
0.000772098
0.000781079
0.00079031
0.00080021
0.00081019
0.0127425
0.00616023
0.00424832
0.00360178
0.00334104
0.00322048
0.00316215
0.00313658
0.00313068
0.00313705
0.00315154
0.00317172
0.00319609
0.00322371
0.00325394
0.0032863
0.00332032
0.00335557
0.0033916
0.00342798
0.00346433
0.00350028
0.00353551
0.00356978
0.00360291
0.00363483
0.00366554
0.00369504
0.0037233
0.0037501
0.00377515
0.0037982
0.00381974
0.00383975
0.00386741
0.00658279
0.00204985
0.000882285
0.000542445
0.000464205
0.000480395
0.000527818
0.000579766
0.000625483
0.000661461
0.000686911
0.000702184
0.000708753
0.000708094
0.000701692
0.000690979
0.000677251
0.000661609
0.000644929
0.000627873
0.000610908
0.000594341
0.000578362
0.000563074
0.000548526
0.000534738
0.000521735
0.000509556
0.00049824
0.00048777
0.000477998
0.000468563
0.000459007
0.000448688
0.000438577
0.006583
0.00205021
0.000882673
0.000543005
0.000465024
0.000481353
0.0005287
0.000580424
0.000625867
0.000661581
0.000686833
0.000701958
0.000708421
0.000707681
0.000701217
0.000690454
0.000676687
0.000661015
0.000644312
0.000627237
0.000610255
0.000593671
0.00057768
0.000562402
0.000547905
0.000534229
0.000521374
0.000509281
0.000497804
0.000486707
0.000475777
0.000464976
0.000454776
0.000446041
0.000441229
0.00810516
0.00345653
0.00247238
0.00222473
0.00214906
0.00212316
0.00211635
0.00211823
0.00212391
0.00212987
0.00213415
0.00213504
0.00213073
0.00212002
0.00210247
0.00207834
0.00204842
0.00201377
0.0019756
0.00193506
0.00189321
0.00185082
0.00180855
0.00176695
0.00172647
0.00168751
0.00165033
0.00161492
0.00158089
0.00154731
0.00151308
0.00147776
0.00144285
0.00141308
0.00139526
0.00852362
0.00373704
0.00268402
0.00239373
0.00229357
0.00225545
0.00224357
0.00224429
0.0022509
0.00225861
0.00226506
0.00226789
0.002265
0.00225505
0.00223757
0.00221288
0.00218182
0.00214555
0.00210538
0.00206257
0.00201825
0.00197333
0.00192845
0.00188417
0.00184085
0.0017988
0.00175836
0.00171993
0.00168399
0.00165079
0.00161995
0.00159004
0.00155852
0.00152298
0.00148143
0.00655256
0.00200457
0.000781362
0.000364656
0.00019485
0.000115672
7.49423e-05
5.26622e-05
4.03535e-05
3.41899e-05
3.2402e-05
3.41574e-05
3.90001e-05
4.65446e-05
5.63249e-05
6.77665e-05
8.02441e-05
9.31719e-05
0.000106074
0.00011861
0.000130573
0.000141856
0.000152426
0.0001623
0.00017152
0.000180149
0.000188251
0.000195884
0.000203098
0.00020993
0.000216413
0.000222597
0.000228538
0.00023429
0.00023973
0.0202313
0.00999894
0.00666217
0.00556534
0.0051198
0.00490862
0.00480706
0.00476303
0.00474978
0.00475226
0.0047603
0.00476677
0.0047661
0.00475452
0.00473015
0.00469272
0.00464318
0.00458329
0.0045152
0.00444112
0.00436313
0.00428302
0.00420221
0.0041218
0.00404263
0.00396539
0.00389069
0.00381922
0.00375159
0.00368812
0.00362819
0.00357033
0.00351032
0.00345038
0.00337184
0.00657205
0.00202455
0.000834269
0.000465515
0.000355674
0.000345167
0.000375324
0.000419451
0.0004646
0.000505184
0.000539518
0.000567721
0.000590589
0.000608956
0.00062351
0.000634803
0.000643263
0.000649342
0.000653398
0.000655759
0.000656731
0.000656595
0.000655604
0.000653987
0.000651937
0.000649623
0.000647182
0.000644722
0.000642315
0.000639988
0.000637722
0.00063546
0.000633223
0.000631019
0.000630058
0.0605309
0.0295898
0.0185226
0.0151204
0.0137636
0.0131001
0.0127531
0.0125715
0.0124842
0.0124523
0.0124528
0.0124703
0.0124931
0.0125117
0.0125191
0.0125106
0.0124837
0.0124375
0.012373
0.0122921
0.0121975
0.0120921
0.0119787
0.01186
0.0117383
0.0116156
0.0114934
0.0113734
0.0112565
0.0111437
0.0110351
0.0109317
0.0108279
0.0107396
0.0106025
0.0862734
0.0385189
0.0234587
0.0188987
0.0170911
0.0162258
0.0157757
0.0155496
0.0154531
0.0154347
0.0154668
0.0155342
0.0156278
0.0157414
0.0158711
0.0160139
0.0161674
0.0163298
0.0164996
0.0166754
0.0168562
0.0170408
0.0172284
0.0174184
0.0176106
0.017805
0.018001
0.0181972
0.0183908
0.0185795
0.0187628
0.0189455
0.0191365
0.0193342
0.0195934
0.00838928
0.00374247
0.00269366
0.00239181
0.0022818
0.00223472
0.002214
0.00220738
0.00220858
0.00221425
0.00222211
0.00223025
0.0022371
0.00224135
0.00224207
0.00223872
0.00223115
0.00221952
0.00220425
0.00218591
0.00216513
0.00214253
0.00211869
0.00209412
0.00206925
0.00204446
0.00202008
0.00199638
0.00197353
0.00195154
0.00193018
0.00190897
0.00188768
0.0018658
0.00184807
0.00657727
0.00201932
0.000839068
0.000481644
0.000381679
0.000377862
0.000410821
0.000454678
0.000497974
0.000536264
0.000568523
0.00059514
0.000617226
0.000635812
0.000651771
0.000665772
0.000678329
0.000689835
0.000700578
0.000710767
0.000720542
0.000729998
0.000739188
0.000748146
0.000756896
0.000765456
0.000773839
0.000782038
0.00079001
0.000797686
0.000805016
0.000812032
0.000818923
0.000826012
0.000833552
0.00754031
0.00306057
0.00214803
0.00194091
0.00189066
0.00188012
0.00188199
0.00188848
0.0018964
0.00190305
0.00190734
0.00190801
0.00190363
0.00189329
0.00187672
0.00185425
0.00182668
0.00179497
0.00176023
0.0017235
0.00168569
0.0016475
0.00160948
0.00157212
0.00153583
0.00150092
0.00146762
0.00143589
0.00140534
0.00137514
0.00134439
0.00131285
0.00128216
0.00125647
0.00124255
0.0076541
0.00314639
0.00221972
0.0020002
0.00194172
0.00192678
0.00192672
0.0019327
0.00194091
0.00194815
0.00195318
0.00195453
0.00195066
0.00194061
0.00192408
0.00190144
0.00187346
0.00184117
0.00180571
0.00176816
0.00172947
0.00169038
0.00165144
0.00161309
0.00157563
0.00153932
0.00150446
0.00147139
0.0014405
0.00141194
0.00138531
0.00135929
0.00133178
0.00130058
0.00126551
0.00655227
0.00200319
0.000780043
0.000363722
0.000194052
0.000114601
7.31726e-05
4.96646e-05
3.53967e-05
2.62598e-05
2.01576e-05
1.5956e-05
1.30141e-05
1.09617e-05
9.5871e-06
8.77732e-06
8.48441e-06
8.7034e-06
9.45539e-06
1.07724e-05
1.26834e-05
1.52033e-05
1.83237e-05
2.2009e-05
2.61973e-05
3.08044e-05
3.57323e-05
4.08787e-05
4.61465e-05
5.145e-05
5.6719e-05
6.19018e-05
6.69626e-05
7.18735e-05
7.65614e-05
0.00882397
0.00408259
0.00297992
0.00264609
0.00251971
0.00246339
0.00243652
0.00242528
0.00242277
0.00242551
0.00243111
0.00243764
0.00244334
0.00244671
0.00244673
0.00244273
0.00243444
0.00242195
0.0024056
0.00238592
0.00236354
0.00233911
0.00231324
0.00228648
0.00225931
0.00223212
0.00220523
0.00217893
0.00215348
0.00212912
0.00210599
0.00208402
0.00206304
0.00204201
0.0020232
0.00708174
0.00255733
0.00157496
0.0013671
0.00134383
0.00136024
0.00138149
0.00140054
0.00141692
0.00143147
0.00144498
0.00145801
0.0014709
0.00148383
0.00149684
0.00150987
0.00152279
0.00153541
0.00154754
0.00155903
0.00156974
0.0015796
0.00158855
0.00159659
0.00160376
0.00161013
0.0016158
0.00162089
0.0016255
0.00162967
0.00163335
0.00163638
0.00163881
0.00164044
0.00164475
0.0125381
0.00584195
0.0039795
0.00336288
0.0031268
0.00302904
0.00299051
0.00298147
0.00298895
0.00300628
0.00302975
0.0030574
0.00308791
0.00312067
0.00315539
0.00319183
0.00322985
0.00326924
0.00330982
0.00335139
0.00339372
0.00343658
0.00347974
0.00352298
0.00356616
0.00360922
0.00365205
0.00369445
0.00373594
0.00377583
0.00381363
0.00384951
0.00388517
0.00392212
0.0039684
0.0726083
0.0350929
0.0218503
0.0177851
0.0161429
0.0153283
0.0149009
0.0146791
0.0145724
0.0145321
0.0145282
0.0145405
0.0145535
0.0145555
0.0145386
0.014498
0.0144321
0.0143414
0.0142284
0.0140965
0.0139497
0.013792
0.0136269
0.0134577
0.0132872
0.0131174
0.0129503
0.0127875
0.0126303
0.0124795
0.0123348
0.0121966
0.0120572
0.011937
0.0117548
0.0646634
0.0309437
0.0190277
0.0154522
0.0140312
0.0133356
0.0129779
0.0127983
0.012718
0.0126948
0.0127032
0.0127247
0.0127458
0.0127559
0.0127477
0.0127171
0.0126627
0.0125851
0.012487
0.0123716
0.0122428
0.0121041
0.0119591
0.0118107
0.0116613
0.0115131
0.0113677
0.0112262
0.0110889
0.0109556
0.0108249
0.0106974
0.0105688
0.0104641
0.010315
0.00712519
0.00265187
0.00172308
0.00152948
0.00150189
0.00150956
0.00152293
0.00153647
0.00154961
0.00156264
0.00157569
0.00158885
0.00160234
0.00161631
0.00163079
0.00164573
0.00166105
0.00167658
0.00169218
0.00170767
0.0017229
0.00173772
0.00175203
0.00176574
0.00177881
0.00179125
0.00180312
0.0018145
0.00182536
0.00183557
0.00184494
0.00185336
0.00186137
0.00186918
0.00188244
0.00655872
0.0020046
0.000791579
0.000393157
0.00024839
0.000202153
0.00020194
0.00022498
0.000258679
0.000295343
0.000330584
0.00036234
0.000390012
0.00041378
0.000434141
0.00045168
0.000466959
0.000480468
0.000492614
0.000503709
0.000513998
0.000523665
0.000532852
0.000541665
0.00055019
0.000558492
0.000566615
0.000574567
0.000582324
0.000589846
0.000597123
0.00060424
0.000611379
0.000618777
0.000626206
0.00657076
0.00201095
0.000822589
0.000455565
0.000346327
0.000335393
0.000364179
0.000406395
0.000449712
0.000488871
0.000522401
0.000550478
0.000573914
0.000593645
0.000610506
0.000625199
0.000638284
0.000650197
0.000661267
0.000671732
0.000681766
0.000691485
0.000700968
0.000710268
0.000719423
0.000728463
0.000737399
0.000746213
0.000754847
0.000763219
0.000771292
0.000779147
0.000787016
0.000795239
0.000803686
0.00675946
0.00222346
0.00118621
0.000957754
0.000943319
0.00097989
0.00102122
0.00105644
0.00108483
0.00110788
0.00112714
0.00114378
0.00115871
0.00117257
0.00118587
0.00119895
0.00121203
0.00122528
0.00123879
0.00125258
0.00126667
0.00128103
0.00129559
0.00131033
0.00132518
0.00134014
0.00135516
0.00137016
0.00138495
0.00139928
0.00141299
0.0014262
0.00143947
0.0014537
0.0014688
0.00656023
0.002015
0.000801194
0.000403575
0.000261509
0.000219282
0.000223387
0.00025011
0.000286366
0.00032449
0.000360367
0.000392193
0.000419542
0.000442659
0.000462031
0.000478161
0.0004915
0.000502439
0.000511312
0.000518417
0.000524009
0.000528321
0.000531564
0.000533936
0.000535622
0.000536786
0.000537574
0.000538108
0.000538482
0.000538755
0.000538953
0.000539068
0.000539124
0.000539167
0.000539781
0.00668448
0.00218056
0.00111907
0.000875241
0.000861577
0.00090772
0.000960222
0.0010044
0.00103799
0.00106182
0.00107655
0.00108356
0.00108377
0.00107794
0.0010669
0.0010516
0.00103306
0.00101222
0.000989949
0.000966957
0.00094379
0.00092085
0.000898419
0.000876676
0.000855732
0.000835659
0.000816524
0.000798457
0.000781591
0.000765974
0.000751432
0.000737384
0.000723007
0.000707025
0.000690664
0.00669059
0.00218902
0.00113531
0.000894648
0.000879732
0.000922493
0.000971645
0.00101328
0.00104511
0.0010678
0.00108213
0.00108891
0.00108901
0.00108311
0.001072
0.00105662
0.00103797
0.00101701
0.000994596
0.000971455
0.000948129
0.000925009
0.000902406
0.000880525
0.000859528
0.000839528
0.000820576
0.000802618
0.000785439
0.000768662
0.000751906
0.000735076
0.000718984
0.000705172
0.000697867
0.00655244
0.00200488
0.000781232
0.000364465
0.000194497
0.000114921
7.34983e-05
5.01152e-05
3.61181e-05
2.74582e-05
2.21386e-05
1.91652e-05
1.80736e-05
1.86854e-05
2.09578e-05
2.48745e-05
3.03685e-05
3.72804e-05
4.53575e-05
5.42823e-05
6.37184e-05
7.33541e-05
8.29325e-05
9.22651e-05
0.000101235
0.000109776
0.000117861
0.000125491
0.000132683
0.000139459
0.000145843
0.000151864
0.000157558
0.000162962
0.000168032
0.00655438
0.00200457
0.000782952
0.000370993
0.00020861
0.000140252
0.000114699
0.00011238
0.000124171
0.000144516
0.000169349
0.00019565
0.0002214
0.000245451
0.000267317
0.000286893
0.000304313
0.000319813
0.000333633
0.000346066
0.000357353
0.000367694
0.000377258
0.000386187
0.000394597
0.000402588
0.000410234
0.000417577
0.000424635
0.000431411
0.000437921
0.000444235
0.000450473
0.000456778
0.000462916
0.00659908
0.00206763
0.000916768
0.000596141
0.000534527
0.000561636
0.0006135
0.000665332
0.000709266
0.000744239
0.000771289
0.000791809
0.000806937
0.000817513
0.000824174
0.000827417
0.000827702
0.000825491
0.000821251
0.000815439
0.000808481
0.000800752
0.000792568
0.000784185
0.000775797
0.00076755
0.000759549
0.000751871
0.000744575
0.000737704
0.000731283
0.000725269
0.00071966
0.000714136
0.000709989
0.00677538
0.00227138
0.00123463
0.0010072
0.000998995
0.0010426
0.00108901
0.0011264
0.00115423
0.00117479
0.00118976
0.00120018
0.00120638
0.0012088
0.00120768
0.00120324
0.00119583
0.0011859
0.00117394
0.00116045
0.00114592
0.00113076
0.00111531
0.00109983
0.00108455
0.00106963
0.00105522
0.00104142
0.00102825
0.00101569
0.00100357
0.000991594
0.000979684
0.000967499
0.000958383
0.00920767
0.00411627
0.0028821
0.00249965
0.00235379
0.00229293
0.00227013
0.00226702
0.00227466
0.0022882
0.00230506
0.00232373
0.00234325
0.00236291
0.00238204
0.00240002
0.00241628
0.00243039
0.00244206
0.00245115
0.00245766
0.00246172
0.00246355
0.00246339
0.00246157
0.00245842
0.00245428
0.00244949
0.00244429
0.00243878
0.00243281
0.00242598
0.00241823
0.002409
0.00240479
0.00663567
0.00209501
0.000986535
0.000701537
0.000659631
0.000691718
0.000740041
0.000785469
0.000823259
0.000853461
0.000877648
0.000897442
0.000914146
0.000928725
0.000941804
0.000953821
0.000965056
0.00097567
0.000985748
0.000995335
0.00100445
0.00101311
0.00102131
0.00102906
0.00103638
0.00104331
0.0010499
0.0010562
0.00106221
0.00106786
0.00107307
0.00107781
0.00108232
0.00108696
0.00109325
0.00655287
0.0020083
0.000783239
0.000366033
0.000196443
0.00011804
7.86887e-05
5.85359e-05
4.92712e-05
4.71768e-05
5.04478e-05
5.80253e-05
6.90586e-05
8.26842e-05
9.79937e-05
0.000114105
0.000130265
0.000145912
0.000160692
0.000174426
0.000187061
0.000198622
0.000209179
0.00021882
0.000227638
0.000235725
0.000243167
0.000250047
0.000256417
0.000262323
0.000267799
0.000272899
0.000277692
0.000282262
0.000286606
0.0065543
0.00201122
0.000786797
0.000371944
0.000206841
0.000135515
0.000106416
0.000100025
0.000107659
0.000124363
0.000146521
0.000171239
0.000196327
0.000220317
0.000242376
0.000262158
0.000279599
0.00029479
0.000307894
0.000319084
0.000328569
0.000336577
0.000343314
0.000348971
0.000353719
0.000357721
0.000361125
0.000364061
0.000366635
0.000368925
0.000370989
0.000372868
0.000374611
0.000376308
0.000378162
0.00685449
0.0023632
0.00135399
0.00114328
0.00113944
0.00117979
0.0012204
0.00125243
0.00127646
0.00129446
0.00130786
0.0013175
0.00132358
0.00132612
0.00132519
0.00132095
0.00131367
0.00130372
0.00129158
0.00127771
0.0012626
0.00124669
0.00123033
0.00121384
0.00119745
0.00118135
0.00116567
0.00115055
0.00113608
0.00112237
0.00110946
0.00109725
0.00108569
0.00107387
0.00106456
0.00693767
0.00241419
0.00142421
0.00122013
0.00120714
0.00123416
0.00126373
0.00128872
0.00130941
0.00132703
0.00134276
0.00135735
0.00137125
0.00138481
0.0013984
0.00141228
0.00142655
0.00144126
0.00145642
0.00147197
0.00148786
0.00150398
0.00152025
0.00153656
0.00155284
0.00156905
0.00158515
0.00160107
0.00161665
0.00163166
0.00164588
0.00165932
0.00167242
0.00168604
0.00170155
0.00716357
0.00268679
0.00173634
0.00153885
0.00151448
0.00152611
0.00154206
0.00155539
0.00156691
0.00157724
0.0015865
0.00159441
0.00160048
0.0016042
0.00160516
0.00160315
0.00159814
0.00159031
0.00158
0.0015676
0.00155357
0.00153834
0.00152231
0.00150581
0.00148914
0.00147256
0.00145628
0.00144049
0.00142529
0.00141068
0.00139651
0.0013824
0.00136821
0.00135352
0.00134222
0.0082721
0.00345137
0.00236772
0.00207707
0.00198529
0.00195481
0.00194778
0.00195157
0.00196118
0.0019743
0.00198976
0.00200694
0.0020255
0.00204527
0.00206614
0.0020881
0.0021111
0.00213508
0.00215999
0.00218577
0.00221232
0.00223952
0.00226728
0.00229551
0.00232421
0.00235341
0.0023831
0.00241305
0.00244274
0.00247149
0.00249897
0.00252579
0.00255385
0.0025854
0.00262236
0.00655339
0.00201898
0.000790339
0.000370047
0.000198032
0.000117372
7.54506e-05
5.19696e-05
3.82135e-05
3.01403e-05
2.57931e-05
2.42184e-05
2.49541e-05
2.77483e-05
3.23901e-05
3.86156e-05
4.6078e-05
5.43662e-05
6.30518e-05
7.17495e-05
8.0146e-05
8.80237e-05
9.52589e-05
0.000101805
0.000107674
0.000112913
0.00011759
0.000121783
0.000125568
0.000129017
0.00013219
0.000135133
0.000137888
0.000140458
0.000142977
0.00657565
0.00201432
0.000835232
0.000479625
0.000382365
0.000381579
0.000416963
0.000462184
0.00050598
0.000544402
0.000576784
0.000603764
0.000626319
0.000645414
0.000661866
0.000676312
0.000689287
0.000701202
0.00071237
0.000723028
0.000733349
0.000743454
0.00075343
0.00076334
0.000773243
0.000783186
0.000793189
0.000803215
0.000813156
0.000822881
0.000832343
0.000841699
0.000851326
0.000861683
0.000872146
0.0674525
0.03082
0.0188344
0.0153181
0.0139168
0.0132323
0.0128831
0.0127133
0.0126459
0.0126376
0.0126644
0.0127109
0.0127661
0.0128211
0.0128689
0.012904
0.0129231
0.0129244
0.0129076
0.0128738
0.012825
0.0127633
0.0126914
0.0126116
0.0125264
0.0124378
0.0123477
0.0122577
0.0121684
0.0120802
0.0119923
0.0119051
0.0118146
0.0117411
0.0116211
0.00655768
0.00200434
0.000789252
0.00038754
0.000238671
0.000187539
0.00018205
0.000200158
0.000229867
0.000263721
0.000297252
0.000328149
0.000355551
0.000379401
0.000400016
0.00041788
0.000433489
0.000447289
0.000459658
0.000470903
0.000481265
0.000490929
0.000500036
0.000508694
0.000516986
0.000524979
0.000532718
0.000540212
0.00054746
0.000554441
0.000561152
0.000567656
0.00057409
0.000580657
0.000587139
0.00655233
0.00200376
0.000780689
0.000364191
0.000194367
0.000114816
7.33226e-05
4.97674e-05
3.54591e-05
2.62799e-05
2.01248e-05
1.58489e-05
1.27973e-05
1.05808e-05
8.96286e-06
7.79921e-06
7.00526e-06
6.53701e-06
6.37963e-06
6.53959e-06
7.03848e-06
7.90728e-06
9.18079e-06
1.08921e-05
1.30675e-05
1.5721e-05
1.88511e-05
2.24367e-05
2.64375e-05
3.0796e-05
3.5442e-05
4.02988e-05
4.52872e-05
5.03277e-05
5.53108e-05
0.00684481
0.0023169
0.00131024
0.00109859
0.00108697
0.00111955
0.00115529
0.00118542
0.00120971
0.00122969
0.0012468
0.00126211
0.00127639
0.00129015
0.00130376
0.00131748
0.00133145
0.00134578
0.00136053
0.00137573
0.00139137
0.00140744
0.00142388
0.00144066
0.00145779
0.00147528
0.00149312
0.00151117
0.00152914
0.00154665
0.0015635
0.00158004
0.00159728
0.00161658
0.00163761
0.00656272
0.00200878
0.000801965
0.000412358
0.0002786
0.000244387
0.000254911
0.000285523
0.000323085
0.000360667
0.000394979
0.00042499
0.000450694
0.000472606
0.00049136
0.000507573
0.000521775
0.000534396
0.000545778
0.000556181
0.000565802
0.000574784
0.000583226
0.000591203
0.000598773
0.000605984
0.00061288
0.000619486
0.000625805
0.000631818
0.000637512
0.000642915
0.000648146
0.000653419
0.000658962
0.0241488
0.0121336
0.00789778
0.00648195
0.0059085
0.00563523
0.00550144
0.00544023
0.00541926
0.00542109
0.00543543
0.0054552
0.00547513
0.00549104
0.00549986
0.00549964
0.00548945
0.00546932
0.00543998
0.00540263
0.00535872
0.00530976
0.00525718
0.00520226
0.00514614
0.00508978
0.00503401
0.00497945
0.00492644
0.00487501
0.00482459
0.00477489
0.00472434
0.00467908
0.00462274
0.073888
0.0346882
0.0212152
0.0169869
0.0153036
0.0144969
0.0140748
0.0138593
0.0137639
0.0137416
0.0137664
0.0138236
0.0139042
0.0140028
0.0141157
0.0142403
0.0143748
0.0145175
0.014667
0.0148222
0.014982
0.0151454
0.0153117
0.0154802
0.0156506
0.0158226
0.0159954
0.0161676
0.0163369
0.016502
0.0166631
0.0168247
0.016994
0.0171692
0.0173908
0.00655883
0.00200635
0.000791275
0.000389775
0.000241583
0.000191588
0.0001874
0.000206634
0.000237127
0.00027143
0.000305251
0.000336368
0.000363946
0.000387939
0.000408674
0.000426611
0.000442223
0.000455945
0.000468155
0.000479168
0.00048924
0.00049857
0.000507309
0.000515573
0.000523455
0.000531031
0.000538357
0.000545455
0.000552311
0.000558881
0.000565145
0.000571161
0.000577102
0.000583199
0.000589434
0.00655553
0.0020301
0.000797039
0.000375521
0.00020458
0.000127229
9.11919e-05
7.67101e-05
7.53721e-05
8.27543e-05
9.56341e-05
0.000111187
0.000127036
0.000141487
0.000153599
0.000163057
0.000169963
0.000174637
0.000177476
0.000178877
0.000179192
0.000178719
0.000177696
0.00017631
0.000174704
0.000172985
0.000171234
0.000169508
0.000167845
0.000166262
0.000164754
0.000163302
0.0001619
0.000160544
0.000159487
0.00655275
0.00201092
0.000785116
0.000366864
0.000196045
0.000116031
7.44321e-05
5.10635e-05
3.72555e-05
2.89757e-05
2.42623e-05
2.21606e-05
2.22319e-05
2.4287e-05
2.82172e-05
3.38809e-05
4.10403e-05
4.93508e-05
5.83808e-05
6.77127e-05
7.70048e-05
8.59643e-05
9.44068e-05
0.000102242
0.000109448
0.000116049
0.000122096
0.000127648
0.00013277
0.000137518
0.000141945
0.000146094
0.000150006
0.000153714
0.000157263
0.00725729
0.00266454
0.00167403
0.00146171
0.00143221
0.00144322
0.00146109
0.00147874
0.00149537
0.00151131
0.00152687
0.00154223
0.00155761
0.0015732
0.00158916
0.00160565
0.00162273
0.00164044
0.00165876
0.00167763
0.00169702
0.00171683
0.00173697
0.00175735
0.00177791
0.00179861
0.0018194
0.00184014
0.00186057
0.00188033
0.00189917
0.00191729
0.00193553
0.00195516
0.00197716
0.00716767
0.00266701
0.00171591
0.00151714
0.0014889
0.00149618
0.00150854
0.00152004
0.00153106
0.00154196
0.00155323
0.0015651
0.00157763
0.00159087
0.00160483
0.00161951
0.00163482
0.00165067
0.0016669
0.00168336
0.00169989
0.00171633
0.00173254
0.0017484
0.00176382
0.00177875
0.0017932
0.00180717
0.00182062
0.00183343
0.00184546
0.00185653
0.00186694
0.00187678
0.00189101
0.00655298
0.00200825
0.000783635
0.000366386
0.000196804
0.000118553
7.9556e-05
6.00635e-05
5.19091e-05
5.15135e-05
5.70971e-05
6.74346e-05
8.13364e-05
9.75432e-05
0.00011485
0.000132262
0.000149084
0.000164894
0.000179496
0.000192842
0.000204976
0.000215984
0.000225971
0.000235042
0.000243298
0.000250839
0.000257753
0.00026412
0.000269998
0.000275433
0.000280463
0.000285139
0.000289535
0.000293755
0.000297774
0.00821763