/*--------------------------------*- C++ -*----------------------------------*\
| =========                 |                                                 |
| \\      /  F ield         | OpenFOAM: The Open Source CFD Toolbox           |
|  \\    /   O peration     | Version:  2.4.x                                 |
|   \\  /    A nd           | Web:      www.OpenFOAM.org                      |
|    \\/     M anipulation  |                                                 |
\*---------------------------------------------------------------------------*/
FoamFile
{
    version     2.0;
    format      ascii;
    class       volScalarField;
    location    "9970/coolant";
    object      k;
}
// * * * * * * * * * * * * * * * * * * * * * * * * * * * * * * * * * * * * * //

dimensions      [0 2 -2 0 0 0 0];

internalField   nonuniform List<scalar> 
109760
(
0.000349476
0.000160207
8.82842e-05
5.54283e-05
3.83181e-05
2.863e-05
2.29878e-05
1.99223e-05
1.87923e-05
1.93275e-05
2.13937e-05
2.4859e-05
2.95288e-05
3.51395e-05
4.13912e-05
4.7996e-05
5.47126e-05
6.13611e-05
6.78193e-05
7.40127e-05
7.99022e-05
8.54745e-05
9.07331e-05
9.56922e-05
0.000100372
0.000104798
0.000108996
0.000112989
0.000116796
0.000120425
0.000123876
0.000127153
0.000130278
0.000133297
0.00013623
0.000350352
0.000161269
9.26173e-05
6.6123e-05
5.85937e-05
6.11358e-05
6.9049e-05
7.94103e-05
9.0436e-05
0.000101134
0.00011103
0.000119968
0.000127962
0.000135093
0.000141467
0.00014719
0.000152361
0.000157066
0.000161381
0.000165369
0.000169083
0.000172567
0.000175853
0.000178966
0.000181931
0.000184772
0.000187513
0.000190173
0.00019275
0.000195217
0.000197535
0.000199687
0.000201734
0.000203811
0.000206127
0.000405319
0.000235778
0.000189728
0.000175078
0.000170367
0.000169525
0.000170372
0.000171956
0.000173808
0.000175698
0.000177488
0.000179067
0.00018035
0.000181272
0.000181794
0.000181907
0.000181625
0.000180985
0.000180036
0.000178836
0.000177441
0.000175905
0.000174275
0.00017259
0.000170883
0.000169181
0.00016751
0.000165891
0.00016434
0.000162858
0.000161424
0.000159984
0.000158506
0.000156876
0.000155552
0.000354612
0.000175254
0.000129069
0.000122935
0.00012865
0.000137125
0.000145527
0.000153059
0.000159619
0.000165317
0.000170309
0.000174735
0.000178712
0.000182337
0.000185685
0.000188817
0.000191778
0.000194604
0.000197327
0.000199971
0.000202553
0.000205085
0.000207573
0.000210021
0.000212436
0.000214835
0.000217239
0.000219652
0.000222048
0.000224355
0.000226492
0.00022844
0.000230329
0.000232429
0.000235112
0.000392034
0.00021823
0.000172921
0.000159345
0.000155329
0.000154844
0.000155817
0.000157416
0.000159291
0.000161269
0.000163272
0.000165263
0.000167229
0.000169163
0.000171066
0.000172933
0.000174756
0.000176526
0.00017823
0.000179857
0.000181396
0.000182842
0.000184189
0.000185436
0.000186586
0.000187644
0.00018862
0.000189529
0.000190381
0.000191179
0.00019192
0.000192574
0.000193155
0.00019356
0.000194399
0.000350011
0.000160683
9.13643e-05
6.37928e-05
5.48688e-05
5.60256e-05
6.28727e-05
7.25916e-05
8.33347e-05
9.39897e-05
0.000103982
0.000113084
0.00012126
0.00012857
0.000135112
0.000140992
0.000146309
0.000151155
0.000155608
0.000159734
0.000163589
0.000167217
0.000170652
0.000173924
0.000177059
0.000180085
0.000183026
0.000185897
0.000188692
0.000191378
0.000193919
0.000196311
0.000198631
0.000201038
0.000203652
0.000349434
0.00015975
8.78443e-05
5.49888e-05
3.77625e-05
2.7735e-05
2.14136e-05
1.71737e-05
1.41866e-05
1.19971e-05
1.03393e-05
9.05008e-06
8.02473e-06
7.19384e-06
6.51003e-06
5.94029e-06
5.46143e-06
5.05725e-06
4.71693e-06
4.434e-06
4.20584e-06
4.03352e-06
3.92174e-06
3.87898e-06
3.9177e-06
4.05445e-06
4.3099e-06
4.70858e-06
5.27828e-06
6.04903e-06
7.0515e-06
8.315e-06
9.86364e-06
1.17123e-05
1.38206e-05
0.000350881
0.000162609
9.7272e-05
7.55189e-05
7.28717e-05
7.91505e-05
8.91332e-05
0.000100065
0.000110621
0.000120264
0.000128846
0.000136421
0.000143113
0.000149057
0.000154374
0.000159167
0.000163523
0.00016751
0.000171182
0.000174583
0.000177744
0.000180691
0.000183443
0.000186017
0.000188428
0.000190694
0.000192832
0.000194861
0.000196791
0.000198618
0.00020033
0.000201905
0.000203358
0.000204725
0.000206263
0.000349444
0.000160035
8.80752e-05
5.5172e-05
3.7905e-05
2.78485e-05
2.15097e-05
1.72641e-05
1.42862e-05
1.21271e-05
1.05323e-05
9.35611e-06
8.51957e-06
7.98861e-06
7.76142e-06
7.85984e-06
8.32154e-06
9.19142e-06
1.0512e-05
1.23136e-05
1.4606e-05
1.73729e-05
2.05715e-05
2.41355e-05
2.79841e-05
3.20312e-05
3.61949e-05
4.04044e-05
4.46038e-05
4.8752e-05
5.28192e-05
5.67859e-05
6.06385e-05
6.43684e-05
6.79248e-05
0.000358584
0.000187145
0.000148213
0.000144791
0.000150203
0.000157225
0.000163962
0.000169949
0.000175098
0.000179405
0.00018285
0.000185417
0.000187087
0.000187875
0.000187837
0.00018707
0.00018569
0.000183824
0.000181594
0.000179108
0.000176464
0.000173737
0.000170984
0.000168246
0.00016555
0.000162913
0.000160352
0.000157893
0.000155575
0.000153441
0.000151516
0.000149747
0.000148002
0.000145926
0.000143546
0.000356567
0.000183631
0.000143666
0.000140213
0.000146098
0.000153602
0.000160651
0.000166775
0.000171946
0.00017624
0.000179665
0.000182208
0.000183861
0.000184639
0.000184599
0.00018383
0.00018245
0.000180587
0.000178364
0.000175893
0.000173269
0.000170565
0.000167837
0.000165127
0.000162467
0.000159889
0.000157422
0.000155087
0.000152883
0.00015076
0.000148615
0.000146307
0.000143789
0.000141112
0.000139069
0.000358756
0.000193422
0.000159184
0.000157149
0.000162086
0.000168008
0.000173515
0.00017831
0.000182486
0.000186088
0.000189083
0.00019141
0.000193023
0.000193904
0.000194075
0.000193597
0.000192554
0.000191043
0.000189168
0.000187024
0.000184697
0.00018226
0.000179769
0.000177269
0.000174788
0.00017235
0.000169972
0.000167677
0.000165496
0.000163466
0.000161611
0.000159903
0.00015827
0.000156404
0.000154547
0.000358226
0.000189506
0.000152847
0.000149911
0.000154915
0.000161222
0.000167081
0.000172157
0.000176559
0.000180337
0.00018347
0.000185915
0.000187634
0.000188616
0.000188882
0.00018849
0.000187524
0.000186085
0.000184277
0.0001822
0.000179942
0.000177574
0.000175153
0.000172725
0.000170322
0.000167974
0.000165709
0.000163552
0.000161513
0.000159571
0.000157665
0.000155685
0.000153565
0.00015121
0.000149294
0.000486599
0.000280434
0.000212152
0.00018853
0.000179334
0.000175562
0.000174237
0.000174134
0.000174708
0.00017567
0.000176864
0.000178207
0.000179648
0.000181157
0.000182713
0.000184299
0.000185897
0.000187489
0.000189057
0.000190585
0.000192059
0.000193467
0.0001948
0.000196054
0.000197226
0.00019832
0.000199342
0.000200299
0.0002012
0.000202044
0.000202823
0.000203521
0.000204144
0.000204655
0.000205376
0.000350338
0.000162002
9.45676e-05
6.98429e-05
6.43494e-05
6.87325e-05
7.79647e-05
8.90371e-05
0.000100232
0.000110702
0.000120121
0.000128433
0.000135703
0.000142028
0.000147502
0.000152209
0.000156218
0.000159596
0.000162409
0.000164722
0.000166598
0.0001681
0.000169291
0.000170225
0.000170956
0.000171531
0.000171992
0.000172376
0.000172713
0.000173024
0.000173313
0.000173563
0.00017376
0.000173852
0.000174088
0.000351184
0.000163816
0.000101172
8.25773e-05
8.25541e-05
9.04346e-05
0.000101051
0.000111941
0.000122063
0.000131094
0.000139025
0.000145972
0.000152076
0.000157471
0.000162272
0.000166566
0.000170419
0.000173884
0.000176998
0.000179795
0.000182305
0.000184552
0.000186563
0.00018836
0.00018997
0.000191419
0.000192732
0.000193939
0.000195061
0.000196112
0.000197093
0.000197984
0.000198784
0.000199459
0.000200351
0.00035378
0.000170848
0.000118419
0.000109379
0.000115232
0.000125223
0.00013545
0.000144698
0.000152754
0.000159696
0.000165714
0.000170977
0.000175631
0.000179801
0.000183588
0.000187073
0.000190318
0.000193369
0.000196257
0.000199006
0.000201632
0.000204144
0.000206547
0.000208846
0.000211044
0.000213152
0.000215178
0.000217135
0.000219022
0.000220823
0.000222508
0.000224046
0.000225456
0.000226794
0.000228419
0.000356102
0.00018127
0.000138739
0.000133145
0.000137677
0.000144423
0.000151156
0.000157276
0.00016268
0.000167425
0.000171605
0.000175302
0.000178589
0.000181518
0.000184118
0.000186408
0.000188396
0.000190093
0.00019151
0.000192666
0.000193582
0.000194285
0.000194802
0.000195161
0.00019539
0.000195518
0.000195572
0.00019558
0.000195567
0.000195545
0.00019551
0.000195417
0.000195253
0.000194866
0.000194959
0.000462826
0.000247829
0.000185878
0.000166339
0.000159076
0.000156244
0.000155372
0.000155515
0.000156215
0.000157232
0.000158433
0.000159739
0.000161108
0.000162516
0.000163945
0.000165377
0.000166798
0.000168191
0.000169543
0.000170839
0.000172071
0.00017323
0.000174313
0.000175318
0.000176245
0.0001771
0.000177893
0.000178634
0.000179331
0.000179978
0.000180562
0.000181069
0.000181522
0.000181928
0.000182601
0.00035031
0.000161263
9.3973e-05
6.94704e-05
6.40385e-05
6.82457e-05
7.71357e-05
8.7831e-05
9.8728e-05
0.000109027
0.000118406
0.0001268
0.000134265
0.000140906
0.000146839
0.000152176
0.000157014
0.00016144
0.000165526
0.000169333
0.000172911
0.000176298
0.000179524
0.000182614
0.00018559
0.000188479
0.000191304
0.000194078
0.000196787
0.000199394
0.000201852
0.000204156
0.000206395
0.000208756
0.000211384
0.000396065
0.000222482
0.000177521
0.000164509
0.000160915
0.000160626
0.000161643
0.000163187
0.000164983
0.000166884
0.000168822
0.000170765
0.000172698
0.000174617
0.000176525
0.000178425
0.000180316
0.000182193
0.000184049
0.000185877
0.000187666
0.000189407
0.000191091
0.000192713
0.000194267
0.000195754
0.000197179
0.000198548
0.000199865
0.00020112
0.000202295
0.000203358
0.000204333
0.000205154
0.000206509
0.0003507
0.000164023
0.000100046
8.00742e-05
7.94894e-05
8.76089e-05
9.89447e-05
0.000110678
0.000121458
0.000130701
0.000138145
0.00014373
0.000147591
0.000149914
0.000150922
0.000150856
0.000149957
0.00014844
0.000146494
0.00014427
0.000141884
0.000139423
0.000136948
0.000134499
0.000132101
0.000129769
0.000127518
0.000125371
0.000123364
0.000121531
0.000119884
0.000118367
0.000116838
0.000115026
0.000112877
0.000350735
0.000164082
0.000100153
8.02775e-05
7.98044e-05
8.79984e-05
9.93554e-05
0.000111072
0.000121819
0.000131025
0.000138441
0.000144005
0.00014785
0.000150161
0.000151157
0.000151082
0.000150174
0.000148649
0.000146696
0.000144464
0.000142071
0.0001396
0.000137113
0.000134654
0.000132254
0.000129942
0.000127742
0.000125665
0.000123696
0.000121777
0.000119813
0.000117706
0.000115467
0.000113285
0.000111827
0.000356044
0.000192853
0.000159651
0.00015625
0.000159493
0.000164152
0.000168874
0.000173231
0.000177067
0.000180265
0.000182786
0.000184593
0.000185627
0.000185868
0.000185347
0.000184138
0.00018235
0.000180098
0.000177501
0.000174673
0.000171706
0.000168671
0.000165618
0.000162592
0.000159629
0.000156766
0.000154039
0.000151465
0.000149024
0.000146621
0.000144094
0.000141277
0.00013818
0.000135116
0.000133053
0.000356299
0.000193226
0.00015943
0.000154678
0.000156746
0.000160606
0.000164814
0.00016884
0.000172461
0.000175518
0.00017796
0.000179718
0.000180727
0.000180964
0.000180456
0.000179278
0.000177531
0.000175329
0.000172792
0.000170025
0.000167123
0.000164154
0.00016117
0.00015821
0.000155296
0.000152444
0.000149675
0.000147025
0.000144549
0.000142307
0.000140321
0.000138501
0.000136618
0.00013423
0.000131123
0.000349464
0.000160192
8.82501e-05
5.53485e-05
3.81306e-05
2.82316e-05
2.22209e-05
1.85633e-05
1.65547e-05
1.58936e-05
1.64773e-05
1.82806e-05
2.12714e-05
2.53566e-05
3.03629e-05
3.60552e-05
4.21772e-05
4.84939e-05
5.4818e-05
6.10161e-05
6.70036e-05
7.27336e-05
7.81854e-05
8.33565e-05
8.82557e-05
9.28992e-05
9.7308e-05
0.000101503
0.000105503
0.000109317
0.00011295
0.000116407
0.000119705
0.000122879
0.000125945
0.000449176
0.000260823
0.000203014
0.00018365
0.000176385
0.000173777
0.000173319
0.000173901
0.000174934
0.000176102
0.000177184
0.000178014
0.000178458
0.000178436
0.00017792
0.000176927
0.000175508
0.000173733
0.00017168
0.000169424
0.000167037
0.000164575
0.000162085
0.000159601
0.000157148
0.000154743
0.000152405
0.00015016
0.000148036
0.000146064
0.000144245
0.000142526
0.000140766
0.000138829
0.000136347
0.000350383
0.000162144
9.49956e-05
7.05822e-05
6.53399e-05
6.98773e-05
7.91941e-05
9.03098e-05
0.000101516
0.000111964
0.000121328
0.000129551
0.000136695
0.00014285
0.000148102
0.000152531
0.000156207
0.000159215
0.00016163
0.000163531
0.000164993
0.00016609
0.000166891
0.000167458
0.000167845
0.000168101
0.000168266
0.000168378
0.000168465
0.000168544
0.000168617
0.000168659
0.000168653
0.000168544
0.000168586
0.000836219
0.000518915
0.000379726
0.000331674
0.000311523
0.000301429
0.000296082
0.000293266
0.000291906
0.000291409
0.000291416
0.000291689
0.000292044
0.000292334
0.00029245
0.000292318
0.000291897
0.000291177
0.000290169
0.000288904
0.00028742
0.000285761
0.000283972
0.000282093
0.00028016
0.000278203
0.000276249
0.000274321
0.000272437
0.000270614
0.000268855
0.000267176
0.000265493
0.000264061
0.000261819
0.000899897
0.000525683
0.000377697
0.000327011
0.000305811
0.000295401
0.000289912
0.000287136
0.000285947
0.000285719
0.000286115
0.000286947
0.000288098
0.000289493
0.00029108
0.000292823
0.000294691
0.000296662
0.000298714
0.000300833
0.000303003
0.000305212
0.000307448
0.000309704
0.000311977
0.000314267
0.000316569
0.000318867
0.000321133
0.000323335
0.000325461
0.000327555
0.000329719
0.000331948
0.000334892
0.000371236
0.000207289
0.000171432
0.000165901
0.000167746
0.000171434
0.000175439
0.000179309
0.000182857
0.00018604
0.000188834
0.000191204
0.000193116
0.000194536
0.000195452
0.000195873
0.000195829
0.00019537
0.000194558
0.00019346
0.000192142
0.000190663
0.000189077
0.000187426
0.000185747
0.000184068
0.000182417
0.000180819
0.000179292
0.000177841
0.000176451
0.000175057
0.000173628
0.000171975
0.00017077
0.000350595
0.000161995
9.58701e-05
7.29806e-05
6.91843e-05
7.46352e-05
8.42351e-05
9.51765e-05
0.000105991
0.000115999
0.000124972
0.000132898
0.000139896
0.000146103
0.000151646
0.000156636
0.000161171
0.000165328
0.000169172
0.000172751
0.000176103
0.000179258
0.000182237
0.000185058
0.000187735
0.000190284
0.000192722
0.000195064
0.00019731
0.00019945
0.000201458
0.000203318
0.000205058
0.000206755
0.000208613
0.000353894
0.000188834
0.000154788
0.000152035
0.000156332
0.000161958
0.00016746
0.000172429
0.000176745
0.000180297
0.000183084
0.000185078
0.000186238
0.000186556
0.000186078
0.00018489
0.000183108
0.000180856
0.000178259
0.00017543
0.000172463
0.000169428
0.000166374
0.000163349
0.000160389
0.000157532
0.000154811
0.000152246
0.00014981
0.000147406
0.00014487
0.000142036
0.00013893
0.00013589
0.000133927
0.000353626
0.000188804
0.00015474
0.000151543
0.000155389
0.000160684
0.000165956
0.000170766
0.00017497
0.000178444
0.000181181
0.000183142
0.000184282
0.000184591
0.000184114
0.000182935
0.000181167
0.000178933
0.000176357
0.000173551
0.000170609
0.000167602
0.000164581
0.000161586
0.00015864
0.000155759
0.000152962
0.000150289
0.000147796
0.000145546
0.000143558
0.000141732
0.00013983
0.00013739
0.00013422
0.000349445
0.000160103
8.81325e-05
5.52177e-05
3.79418e-05
2.78784e-05
2.15333e-05
1.72809e-05
1.42936e-05
1.21196e-05
1.05e-05
9.28252e-06
8.37879e-06
7.7422e-06
7.35591e-06
7.22578e-06
7.37518e-06
7.83969e-06
8.66036e-06
9.87581e-06
1.15141e-05
1.3586e-05
1.60807e-05
1.89656e-05
2.2189e-05
2.56868e-05
2.93892e-05
3.32289e-05
3.71466e-05
4.10936e-05
4.50326e-05
4.89366e-05
5.27861e-05
5.65641e-05
6.02261e-05
0.000378352
0.000216812
0.00018153
0.000176014
0.000177806
0.000181407
0.000185228
0.000188879
0.000192202
0.000195179
0.0001978
0.000200039
0.000201851
0.000203198
0.000204062
0.000204445
0.000204374
0.000203889
0.000203049
0.000201914
0.00020055
0.000199016
0.000197365
0.000195643
0.000193886
0.000192124
0.000190378
0.000188671
0.000187021
0.000185451
0.000183984
0.000182615
0.000181358
0.000180021
0.000179046
0.000356694
0.000180259
0.00013671
0.000131531
0.000136891
0.000144393
0.000151682
0.000158194
0.000163882
0.000168854
0.000173236
0.000177141
0.000180661
0.000183865
0.000186802
0.000189503
0.000191987
0.000194262
0.000196334
0.000198208
0.000199893
0.000201396
0.000202729
0.000203906
0.000204943
0.000205858
0.000206673
0.000207409
0.000208088
0.000208721
0.000209308
0.000209819
0.000210247
0.000210502
0.000211068
0.000380185
0.000208481
0.000165085
0.000152994
0.000150402
0.000151136
0.000153105
0.000155515
0.000158046
0.000160561
0.000163009
0.000165379
0.000167667
0.000169888
0.000172061
0.000174203
0.000176325
0.000178437
0.000180542
0.000182643
0.000184738
0.000186822
0.00018889
0.000190935
0.000192954
0.00019495
0.000196927
0.000198884
0.000200803
0.000202642
0.000204353
0.000205908
0.000207379
0.000208869
0.00021086
0.000863621
0.000531878
0.000387827
0.000338093
0.000316947
0.000306193
0.000300474
0.000297485
0.000296042
0.000295496
0.000295443
0.00029561
0.000295786
0.000295813
0.000295584
0.000295034
0.000294139
0.000292905
0.000291364
0.000289561
0.000287547
0.000285376
0.000283094
0.000280747
0.000278369
0.000275993
0.000273643
0.000271344
0.000269113
0.000266967
0.000264901
0.000262928
0.000260936
0.000259216
0.00025658
0.000844881
0.000516898
0.000373778
0.00032535
0.000305084
0.000294916
0.000289618
0.00028694
0.000285738
0.000285391
0.000285517
0.00028584
0.000286155
0.000286305
0.000286183
0.000285726
0.000284909
0.000283745
0.000282268
0.000280527
0.000278576
0.000276469
0.000274256
0.000271982
0.000269684
0.000267393
0.000265136
0.000262931
0.000260785
0.000258698
0.000256644
0.000254632
0.000252584
0.00025089
0.000248447
0.000356969
0.00018492
0.000146011
0.000142605
0.000148081
0.000155078
0.000161739
0.000167705
0.000172985
0.000177671
0.000181848
0.000185602
0.000189017
0.000192167
0.000195099
0.000197851
0.000200444
0.000202893
0.000205206
0.000207387
0.000209441
0.000211371
0.00021318
0.00021487
0.000216446
0.000217918
0.000219303
0.000220623
0.00022189
0.000223093
0.000224201
0.00022517
0.000226043
0.000226812
0.000228292
0.00034983
0.000160485
9.01135e-05
6.06994e-05
4.92787e-05
4.77388e-05
5.22978e-05
6.05002e-05
7.05196e-05
8.10581e-05
9.13082e-05
0.000100854
0.000109541
0.000117365
0.000124391
0.000130713
0.000136427
0.000141627
0.000146394
0.000150794
0.000154886
0.000158714
0.000162317
0.000165723
0.00016896
0.000172054
0.000175027
0.000177894
0.000180656
0.000183296
0.000185791
0.000188141
0.000190394
0.00019266
0.00019507
0.00035029
0.000161281
9.40484e-05
6.96781e-05
6.44436e-05
6.88501e-05
7.7879e-05
8.8632e-05
9.95123e-05
0.000109727
0.00011898
0.000127224
0.00013453
0.000141018
0.000146809
0.000152017
0.000156745
0.000161075
0.000165079
0.000168812
0.000172316
0.000175625
0.000178765
0.000181756
0.000184616
0.000187363
0.000190013
0.000192579
0.000195056
0.00019742
0.000199644
0.00020172
0.000203697
0.000205691
0.000207867
0.000352628
0.000170004
0.000119331
0.000111308
0.000117239
0.000126775
0.000136361
0.000144967
0.000152444
0.000158906
0.000164517
0.000169433
0.000173791
0.000177708
0.000181279
0.000184584
0.00018768
0.000190615
0.000193423
0.000196131
0.000198756
0.000201311
0.0002038
0.000206229
0.000208603
0.00021093
0.00021322
0.000215478
0.000217685
0.000219799
0.000221771
0.000223581
0.000225296
0.000227085
0.000229169
0.000349923
0.000161201
9.10788e-05
6.2092e-05
5.13525e-05
5.0637e-05
5.59616e-05
6.47307e-05
7.50862e-05
8.57731e-05
9.60435e-05
0.000105522
0.000114076
0.000121701
0.000128447
0.000134381
0.000139569
0.000144076
0.000147965
0.0001513
0.000154142
0.000156551
0.000158589
0.000160312
0.000161774
0.000163026
0.000164113
0.000165077
0.000165952
0.000166763
0.000167521
0.000168222
0.00016886
0.000169407
0.000170064
0.000351971
0.000170004
0.00011721
0.000107946
0.000114149
0.000124859
0.000135873
0.000145759
0.000154148
0.000160992
0.000166273
0.000170106
0.000172596
0.000173862
0.000174052
0.00017334
0.00017191
0.000169942
0.000167593
0.000164998
0.000162263
0.000159467
0.000156669
0.000153907
0.000151204
0.000148573
0.000146029
0.0001436
0.000141327
0.000139259
0.000137415
0.000135729
0.000134034
0.000131968
0.000129448
0.000352106
0.000170511
0.00011842
0.000109406
0.000115449
0.000125844
0.000136559
0.000146212
0.000154428
0.000161153
0.00016639
0.000170198
0.000172677
0.000173937
0.000174122
0.000173405
0.000171969
0.000169992
0.000167634
0.00016503
0.000162285
0.000159476
0.000156661
0.000153884
0.000151177
0.000148572
0.000146095
0.000143762
0.000141551
0.000139389
0.000137151
0.000134706
0.000132064
0.000129454
0.000127738
0.000349455
0.000160209
8.82333e-05
5.53016e-05
3.80117e-05
2.79544e-05
2.16476e-05
1.7484e-05
1.46673e-05
1.27939e-05
1.16736e-05
1.12431e-05
1.15166e-05
1.25479e-05
1.43932e-05
1.70779e-05
2.05723e-05
2.47851e-05
2.95739e-05
3.47684e-05
4.01967e-05
4.57066e-05
5.11776e-05
5.65242e-05
6.1694e-05
6.66583e-05
7.1405e-05
7.59353e-05
8.02569e-05
8.43783e-05
8.83065e-05
9.20487e-05
9.56148e-05
9.90203e-05
0.000102267
0.00034959
0.000160278
8.86941e-05
5.68115e-05
4.15246e-05
3.482e-05
3.35444e-05
3.61723e-05
4.16549e-05
4.90631e-05
5.75596e-05
6.6463e-05
7.5291e-05
8.37485e-05
9.1685e-05
9.90413e-05
0.000105818
0.000112049
0.000117776
0.000123058
0.000127948
0.000132495
0.00013674
0.000140721
0.00014447
0.000148019
0.000151396
0.000154622
0.000157707
0.000160647
0.000163433
0.000166066
0.000168583
0.000171063
0.000173588
0.000351454
0.000165466
0.000103659
8.65651e-05
8.86494e-05
9.85879e-05
0.000110763
0.000122631
0.000133257
0.000142431
0.000150211
0.000156722
0.000162087
0.00016641
0.000169786
0.000172305
0.000174063
0.000175161
0.000175705
0.0001758
0.000175545
0.000175028
0.000174326
0.000173502
0.000172605
0.000171674
0.000170738
0.00016982
0.000168938
0.000168109
0.000167348
0.000166656
0.000166045
0.000165425
0.000165081
0.000354719
0.000174169
0.00012409
0.00011672
0.000123644
0.000134189
0.000144563
0.00015362
0.000161208
0.000167503
0.000172672
0.00017684
0.000180074
0.000182449
0.000184026
0.000184877
0.000185089
0.000184761
0.000183997
0.000182898
0.000181556
0.000180048
0.000178439
0.000176777
0.000175103
0.000173447
0.000171835
0.000170289
0.000168827
0.00016745
0.000166138
0.00016483
0.000163475
0.000161937
0.000160669
0.000368443
0.000200468
0.000161349
0.00015287
0.000152618
0.000155021
0.000158321
0.000161843
0.000165287
0.000168528
0.000171528
0.000174283
0.000176799
0.000179083
0.000181134
0.000182944
0.000184507
0.000185821
0.000186889
0.000187723
0.00018834
0.000188763
0.000189016
0.000189126
0.000189118
0.000189019
0.000188857
0.000188658
0.000188445
0.000188229
0.000188002
0.000187713
0.000187348
0.000186737
0.000186623
0.000352195
0.000166783
0.000109154
9.58639e-05
9.9721e-05
0.000109569
0.00012067
0.000131187
0.000140557
0.000148707
0.000155762
0.000161908
0.000167313
0.000172117
0.000176423
0.000180315
0.000183855
0.000187088
0.000190047
0.00019276
0.000195251
0.000197539
0.000199643
0.000201577
0.000203358
0.000205002
0.000206535
0.00020798
0.000209354
0.000210654
0.000211856
0.000212931
0.000213899
0.000214807
0.000216028
0.000349485
0.000160426
8.84342e-05
5.5572e-05
3.85057e-05
2.89202e-05
2.34556e-05
2.06557e-05
1.98802e-05
2.08472e-05
2.34029e-05
2.73966e-05
3.26186e-05
3.87892e-05
4.55853e-05
5.26878e-05
5.98255e-05
6.67985e-05
7.34795e-05
7.98003e-05
8.57334e-05
9.12779e-05
9.64476e-05
0.000101264
0.000105752
0.000109939
0.000113853
0.000117524
0.000120973
0.000124219
0.000127272
0.000130143
0.000132848
0.00013542
0.000137898
0.000349584
0.000160677
8.89536e-05
5.67457e-05
4.09582e-05
3.35383e-05
3.13296e-05
3.28975e-05
3.73543e-05
4.39284e-05
5.18713e-05
6.05035e-05
6.92819e-05
7.78255e-05
8.58999e-05
9.33861e-05
0.000100234
0.000106436
0.000112012
0.000116988
0.000121409
0.00012533
0.000128805
0.000131886
0.000134626
0.000137075
0.000139281
0.000141288
0.000143134
0.000144848
0.000146451
0.000147948
0.000149347
0.000150654
0.000151972
0.000356274
0.000177836
0.000130749
0.000125309
0.000132846
0.000143138
0.000152892
0.000161298
0.000168345
0.000174207
0.000179043
0.000182965
0.000186033
0.00018829
0.000189792
0.000190602
0.000190799
0.000190473
0.000189718
0.000188628
0.000187289
0.000185777
0.000184157
0.000182478
0.000180781
0.000179093
0.000177437
0.00017583
0.000174292
0.000172842
0.000171499
0.000170261
0.000169134
0.000167948
0.000167064
0.000354851
0.000176463
0.000131426
0.000126412
0.000132827
0.000141501
0.00014977
0.000157042
0.000163336
0.000168793
0.000173575
0.000177804
0.000181595
0.000185041
0.000188223
0.000191204
0.000194029
0.000196734
0.000199342
0.000201869
0.000204324
0.000206713
0.000209036
0.000211293
0.000213484
0.000215616
0.000217695
0.00021973
0.000221711
0.000223609
0.000225381
0.000226989
0.00022847
0.000229924
0.000231695
0.000359665
0.000186571
0.000145902
0.000142148
0.000147924
0.000155393
0.000162414
0.000168503
0.000173712
0.000178164
0.000181952
0.000185124
0.000187697
0.00018968
0.000191086
0.00019194
0.000192286
0.000192181
0.000191695
0.0001909
0.000189867
0.000188658
0.00018733
0.000185927
0.000184487
0.00018304
0.000181614
0.000180234
0.000178919
0.000177675
0.000176487
0.000175298
0.000174066
0.000172623
0.000171553
0.000361164
0.000189864
0.000150872
0.000144563
0.000146517
0.000150529
0.000154896
0.000159096
0.000162985
0.000166552
0.00016983
0.000172866
0.000175702
0.00017838
0.000180934
0.000183398
0.000185796
0.000188147
0.000190467
0.000192766
0.000195051
0.000197324
0.000199585
0.000201833
0.000204073
0.000206319
0.000208584
0.000210867
0.00021313
0.000215296
0.000217292
0.000219117
0.000220927
0.00022302
0.000225716
0.000349511
0.000161099
8.90266e-05
5.59478e-05
3.85468e-05
2.84411e-05
2.21599e-05
1.81131e-05
1.55311e-05
1.40442e-05
1.3497e-05
1.3851e-05
1.51219e-05
1.73282e-05
2.04491e-05
2.43987e-05
2.90228e-05
3.41177e-05
3.94611e-05
4.48468e-05
5.01041e-05
5.51102e-05
5.97901e-05
6.41091e-05
6.80626e-05
7.16665e-05
7.49497e-05
7.79473e-05
8.0697e-05
8.32356e-05
8.55954e-05
8.78014e-05
8.98738e-05
9.18074e-05
9.36609e-05
0.000350583
0.000161741
9.56873e-05
7.31161e-05
6.9848e-05
7.5834e-05
8.58071e-05
9.69247e-05
0.000107776
0.000117765
0.000126716
0.000134653
0.000141678
0.000147918
0.000153494
0.000158513
0.000163073
0.000167255
0.000171128
0.000174747
0.00017816
0.0001814
0.000184496
0.000187468
0.000190338
0.00019313
0.000195867
0.000198561
0.000201198
0.000203732
0.000206114
0.000208336
0.000210495
0.000212785
0.00021539
0.000846855
0.00050238
0.00036178
0.00031522
0.00029569
0.000285913
0.00028086
0.000278387
0.000277402
0.000277281
0.000277673
0.000278353
0.000279158
0.000279959
0.000280653
0.000281165
0.000281442
0.00028146
0.000281216
0.000280726
0.000280015
0.000279117
0.000278067
0.000276901
0.000275651
0.00027435
0.000273023
0.000271694
0.000270374
0.000269072
0.000267772
0.000266481
0.00026513
0.000264014
0.000262171
0.000349776
0.000160433
8.97771e-05
5.97955e-05
4.75318e-05
4.49389e-05
4.83892e-05
5.55976e-05
6.48497e-05
7.48818e-05
8.48631e-05
9.43243e-05
0.000103056
0.000111003
0.000118192
0.000124695
0.000130594
0.000135972
0.000140903
0.000145451
0.000149671
0.000153608
0.000157298
0.000160772
0.000164056
0.000167174
0.00017015
0.000172998
0.000175726
0.000178324
0.000180776
0.000183079
0.000185269
0.000187433
0.000189687
0.000349448
0.000160143
8.81908e-05
5.52728e-05
3.79885e-05
2.7917e-05
2.15642e-05
1.73029e-05
1.4303e-05
1.21095e-05
1.04583e-05
9.18959e-06
8.20427e-06
7.44121e-06
6.86464e-06
6.45738e-06
6.217e-06
6.15358e-06
6.28812e-06
6.65082e-06
7.27858e-06
8.21167e-06
9.48952e-06
1.11459e-05
1.32042e-05
1.56732e-05
1.85444e-05
2.17908e-05
2.53685e-05
2.9221e-05
3.32841e-05
3.74917e-05
4.17789e-05
4.60834e-05
5.03214e-05
0.000353323
0.000172795
0.000125285
0.000118935
0.000125096
0.000134122
0.000142974
0.000150851
0.000157675
0.000163579
0.00016873
0.000173281
0.000177355
0.000181055
0.000184462
0.000187639
0.000190638
0.000193497
0.000196251
0.000198923
0.000201532
0.000204091
0.000206606
0.000209082
0.000211528
0.000213961
0.000216399
0.000218843
0.000221262
0.000223586
0.000225741
0.000227718
0.000229657
0.000231845
0.000234532
0.000350065
0.000160964
9.15378e-05
6.37264e-05
5.44409e-05
5.51395e-05
6.1507e-05
7.08024e-05
8.12033e-05
9.16107e-05
0.000101431
0.000110423
0.000118531
0.000125805
0.000132331
0.000138205
0.00014352
0.000148355
0.00015278
0.00015685
0.000160611
0.0001641
0.000167345
0.000170371
0.000173201
0.000175855
0.000178355
0.000180723
0.000182969
0.000185093
0.000187086
0.000188936
0.000190661
0.000192309
0.000194059
0.000492469
0.0002947
0.000225854
0.000201296
0.000191509
0.000187448
0.00018606
0.000186028
0.000186683
0.000187671
0.000188784
0.000189874
0.000190828
0.000191558
0.000192006
0.000192136
0.000191943
0.000191441
0.000190663
0.000189652
0.000188453
0.000187111
0.000185669
0.000184162
0.000182622
0.000181075
0.000179545
0.000178053
0.000176612
0.000175223
0.000173871
0.000172522
0.000171136
0.000169729
0.000168283
0.000883244
0.000533522
0.000384411
0.000331467
0.000309191
0.000298227
0.00029241
0.000289418
0.000288089
0.000287777
0.000288124
0.000288921
0.000290043
0.000291412
0.000292976
0.000294699
0.000296551
0.00029851
0.000300557
0.000302673
0.000304845
0.000307058
0.000309301
0.000311565
0.000313846
0.00031614
0.000318439
0.000320724
0.000322967
0.000325145
0.000327255
0.00032935
0.000331521
0.000333762
0.000336621
0.000349885
0.000160642
9.0074e-05
6.02292e-05
4.8201e-05
4.5938e-05
4.97455e-05
5.72772e-05
6.67974e-05
7.70438e-05
8.72096e-05
9.68355e-05
0.000105714
0.000113789
0.000121089
0.000127678
0.000133632
0.000139033
0.000143957
0.000148473
0.00015264
0.000156508
0.000160117
0.0001635
0.000166685
0.000169699
0.000172569
0.000175319
0.000177955
0.000180465
0.000182827
0.000185027
0.000187106
0.000189162
0.000191368
0.000349643
0.00016181
8.96878e-05
5.6804e-05
4.00025e-05
3.11384e-05
2.70243e-05
2.63287e-05
2.83755e-05
3.26062e-05
3.83795e-05
4.49928e-05
5.17927e-05
5.82724e-05
6.41072e-05
6.91356e-05
7.33163e-05
7.66854e-05
7.93222e-05
8.13255e-05
8.27983e-05
8.3839e-05
8.45356e-05
8.49648e-05
8.51908e-05
8.52673e-05
8.52387e-05
8.51419e-05
8.5006e-05
8.48511e-05
8.46859e-05
8.4504e-05
8.42943e-05
8.40307e-05
8.38057e-05
0.000349474