/*--------------------------------*- C++ -*----------------------------------*\
| =========                 |                                                 |
| \\      /  F ield         | OpenFOAM: The Open Source CFD Toolbox           |
|  \\    /   O peration     | Version:  2.4.x                                 |
|   \\  /    A nd           | Web:      www.OpenFOAM.org                      |
|    \\/     M anipulation  |                                                 |
\*---------------------------------------------------------------------------*/
FoamFile
{
    version     2.0;
    format      ascii;
    class       volScalarField;
    location    "9970/coolant";
    object      mut;
}
// * * * * * * * * * * * * * * * * * * * * * * * * * * * * * * * * * * * * * //

dimensions      [1 -1 -1 0 0 0 0];

internalField   nonuniform List<scalar> 
109760
(
0.00166908
0.0011465
0.000893008
0.000753796
0.000672562
0.000627867
0.00061362
0.000631602
0.000686609
0.000781877
0.000917094
0.00108982
0.00129627
0.00153059
0.00178527
0.00205255
0.00232558
0.00259897
0.0028687
0.00313196
0.0033869
0.00363244
0.00386808
0.00409364
0.00430927
0.00451533
0.00471245
0.00490136
0.00508261
0.00525619
0.00542146
0.00557766
0.00572523
0.00586674
0.00600774
0.00167389
0.0011589
0.000950125
0.000918914
0.00102159
0.00121318
0.0014501
0.00170716
0.0019698
0.00222802
0.00247518
0.00270796
0.00292505
0.00312631
0.00331227
0.00348383
0.00364207
0.00378814
0.00392319
0.00404834
0.00416463
0.00427297
0.00437413
0.00446872
0.00455736
0.00464083
0.00472007
0.00479599
0.00486894
0.00493819
0.00500213
0.00505932
0.00511094
0.0051614
0.00522191
0.00110524
0.0007382
0.000686753
0.000692482
0.000710173
0.000731501
0.000752979
0.000773031
0.000790992
0.000806742
0.000820253
0.000831457
0.000840309
0.00084679
0.000850966
0.000852981
0.000853054
0.000851456
0.000848485
0.000844439
0.000839593
0.000834188
0.000828422
0.000822454
0.000816409
0.000810393
0.000804507
0.000798852
0.000793516
0.000788513
0.000783764
0.000778886
0.000773761
0.000766876
0.000762944
0.00162523
0.00114829
0.00106802
0.00114252
0.0012707
0.00141234
0.00155046
0.00167793
0.00179251
0.00189438
0.00198476
0.002065
0.00213651
0.00220059
0.00225836
0.00231077
0.00235862
0.00240262
0.00244338
0.00248144
0.00251723
0.0025511
0.00258325
0.00261384
0.00264308
0.00267134
0.0026991
0.00272673
0.00275407
0.00278008
0.0028032
0.00282244
0.00283926
0.00285798
0.00288654
0.00102583
0.000661068
0.000607604
0.000612266
0.000629473
0.000649975
0.000670389
0.000689312
0.0007065
0.000722018
0.000736036
0.000748747
0.000760337
0.000770978
0.000780816
0.000789961
0.000798487
0.00080644
0.000813844
0.000820718
0.000827078
0.000832941
0.000838323
0.000843249
0.000847749
0.000851866
0.000855658
0.000859199
0.000862562
0.00086577
0.000868812
0.000871484
0.000873885
0.000875126
0.000879117
0.00167174
0.00115319
0.000934255
0.000883276
0.00095964
0.00112837
0.00135023
0.00159899
0.00185851
0.00211736
0.00236787
0.00260557
0.00282832
0.00303555
0.00322755
0.00340516
0.00356942
0.00372149
0.00386254
0.00399368
0.00411597
0.00423031
0.00433749
0.0044382
0.00453314
0.00462315
0.00470919
0.00479204
0.00487175
0.00494732
0.005017
0.00507971
0.00513736
0.00519566
0.00526461
0.00166884
0.00114407
0.000889674
0.000748591
0.000662281
0.000605292
0.000565372
0.000536073
0.000513745
0.0004962
0.00048206
0.000470431
0.000460714
0.000452511
0.00044557
0.000439761
0.000435074
0.000431622
0.000429665
0.000429633
0.000432157
0.000438085
0.000448492
0.000464671
0.000488122
0.000520563
0.000563996
0.000620808
0.000693834
0.000786265
0.000901359
0.00104206
0.00121052
0.00140767
0.00163005
0.00167517
0.001169
0.000996234
0.001021
0.00116681
0.00137002
0.00159602
0.0018276
0.00205436
0.00227006
0.00247146
0.00265761
0.00282872
0.00298561
0.00312935
0.00326109
0.00338195
0.00349294
0.00359498
0.00368886
0.0037753
0.00385491
0.00392827
0.00399587
0.00405824
0.00411595
0.00416966
0.00422003
0.0042676
0.00431244
0.00435417
0.0043919
0.00442548
0.00445512
0.00448877
0.0016689
0.00114554
0.000891288
0.000750242
0.000663892
0.000606891
0.0005671
0.00053825
0.00051702
0.000501797
0.000492153
0.000488647
0.000492744
0.000506702
0.000533302
0.000575468
0.000636024
0.000717771
0.000823554
0.000955793
0.00111562
0.00130224
0.00151288
0.00174326
0.00198832
0.00224298
0.00250272
0.00276398
0.00302423
0.00328178
0.00353548
0.00378448
0.00402806
0.00426574
0.00449609
0.00156877
0.00110884
0.00104682
0.00111857
0.00122602
0.00133787
0.00144304
0.00153757
0.00162007
0.00169042
0.00174843
0.00179424
0.00182818
0.00185093
0.00186359
0.00186757
0.00186441
0.00185566
0.00184272
0.00182681
0.00180899
0.00179006
0.00177061
0.00175104
0.00173159
0.00171237
0.0016935
0.00167523
0.00165809
0.00164283
0.00163015
0.00161984
0.00161045
0.00159652
0.00157706
0.00160331
0.00114268
0.0010813
0.00115694
0.00127148
0.00139133
0.00150367
0.0016042
0.0016918
0.00176659
0.00182857
0.00187778
0.00191452
0.00193944
0.00195363
0.00195851
0.00195571
0.00194688
0.00193357
0.00191711
0.00189861
0.00187889
0.00185856
0.00183804
0.00181769
0.00179783
0.00177889
0.00176126
0.00174511
0.00172993
0.00171424
0.00169545
0.00167165
0.00164177
0.00161602
0.00151283
0.00107193
0.00103197
0.00111013
0.00121052
0.00130826
0.00139633
0.00147291
0.00153901
0.00159537
0.00164229
0.00167986
0.00170825
0.00172789
0.00173953
0.00174414
0.00174286
0.00173684
0.00172719
0.0017149
0.00170083
0.00168564
0.00166987
0.00165388
0.00163792
0.00162213
0.00160662
0.00159159
0.00157736
0.00156442
0.00155327
0.00154385
0.00153561
0.00152451
0.00151268
0.00153841
0.00108524
0.00103417
0.0011079
0.00121051
0.00131391
0.00140809
0.00149047
0.00156189
0.00162304
0.00167416
0.00171539
0.00174693
0.00176919
0.0017829
0.00178903
0.00178876
0.00178334
0.00177398
0.00176175
0.00174757
0.00173218
0.00171612
0.0016998
0.00168352
0.00166754
0.00165214
0.00163765
0.00162427
0.0016119
0.00159984
0.00158653
0.00157063
0.00154967
0.00153116
0.000833454
0.000579787
0.000515907
0.000496791
0.000492841
0.000495012
0.000499633
0.000505035
0.000510577
0.000516038
0.000521315
0.000526371
0.000531208
0.000535843
0.000540299
0.000544593
0.00054873
0.000552708
0.000556517
0.000560146
0.000563584
0.000566824
0.000569859
0.000572689
0.000575318
0.000577759
0.000580036
0.000582181
0.000584221
0.000586161
0.00058798
0.00058958
0.000591001
0.000591902
0.000593921
0.00167277
0.00116209
0.000965369
0.00095261
0.00106895
0.00126174
0.00149126
0.0017353
0.00197986
0.00221588
0.0024381
0.00264399
0.00283264
0.00300394
0.00315816
0.00329579
0.00341746
0.00352402
0.00361654
0.00369625
0.00376454
0.00382283
0.00387256
0.0039151
0.00395171
0.00398355
0.0040117
0.00403715
0.00406081
0.00408336
0.00410503
0.00412525
0.00414323
0.00415651
0.00417004
0.00167375
0.00117364
0.00102272
0.00106927
0.00122041
0.00141673
0.00163003
0.00184479
0.00205156
0.00224535
0.00242409
0.00258747
0.00273609
0.00287094
0.00299316
0.00310378
0.00320372
0.00329378
0.0033747
0.00344721
0.00351201
0.0035698
0.00362128
0.00366714
0.00370809
0.00374481
0.00377805
0.00380853
0.00383694
0.00386371
0.00388895
0.00391208
0.00393273
0.00394933
0.0039687
0.00166963
0.00119789
0.00111888
0.00122154
0.00138946
0.00157364
0.0017546
0.00192401
0.00207885
0.00221838
0.00234353
0.00245558
0.00255596
0.00264617
0.00272755
0.00280134
0.00286864
0.00293031
0.00298706
0.00303948
0.00308804
0.00313313
0.00317506
0.00321407
0.00325043
0.00328446
0.00331654
0.00334706
0.00337627
0.00340398
0.00342959
0.00345219
0.00347174
0.00348867
0.00351093
0.00158179
0.00111086
0.00103293
0.00109414
0.00119811
0.0013105
0.0014189
0.00151821
0.00160689
0.00168515
0.00175387
0.00181409
0.00186682
0.00191291
0.00195301
0.00198762
0.00201718
0.0020421
0.00206283
0.0020798
0.00209351
0.00210441
0.00211296
0.00211959
0.00212467
0.00212859
0.00213167
0.00213429
0.00213679
0.00213937
0.00214203
0.00214416
0.00214534
0.00214303
0.00214477
0.000621077
0.000410682
0.00036056
0.000346193
0.000343604
0.000345385
0.00034877
0.000352708
0.00035677
0.000360766
0.000364608
0.000368262
0.000371728
0.000375023
0.000378163
0.000381157
0.000384009
0.000386717
0.000389277
0.000391684
0.000393935
0.00039603
0.000397971
0.000399759
0.0004014
0.000402907
0.000404303
0.00040562
0.00040688
0.000408074
0.000409168
0.00041008
0.000410876
0.000411424
0.000412993
0.00167245
0.00115825
0.000961871
0.000951075
0.00106793
0.0012586
0.00148523
0.00172754
0.00197249
0.0022111
0.00243788
0.00265003
0.00284665
0.00302793
0.00319469
0.00334804
0.00348919
0.00361939
0.00373981
0.00385157
0.00395566
0.00405295
0.00414414
0.00422983
0.00431065
0.0043874
0.00446101
0.0045322
0.00460094
0.00466605
0.00472561
0.00477851
0.0048269
0.00487687
0.00493881
0.00110241
0.000719543
0.000664278
0.000672863
0.000694026
0.000717425
0.00073994
0.000760294
0.000778582
0.000795009
0.000809844
0.000823319
0.000835638
0.000846995
0.000857568
0.000867502
0.000876906
0.000885855
0.000894397
0.000902562
0.000910365
0.000917812
0.000924903
0.000931635
0.000938015
0.000944067
0.000949837
0.000955384
0.000960751
0.000965902
0.000970742
0.000975009
0.000978834
0.000981574
0.000987466
0.00167312
0.0011753
0.00101592
0.00105851
0.00121892
0.00143075
0.00166099
0.00189205
0.00211202
0.0023127
0.00248791
0.00263456
0.00275228
0.00284224
0.00290685
0.00294936
0.00297336
0.00298242
0.00297986
0.00296855
0.00295092
0.00292886
0.00290387
0.002877
0.00284893
0.0028201
0.00279097
0.00276228
0.00273528
0.00271159
0.00269255
0.00267766
0.00266326
0.00264068
0.00260153
0.0016734
0.00117595
0.00101764
0.00106279
0.00122643
0.00144063
0.00167201
0.0019034
0.0021233
0.00232376
0.00249888
0.0026455
0.00276324
0.00285325
0.00291791
0.00296045
0.00298445
0.0029935
0.00299092
0.00297958
0.00296186
0.00293962
0.00291431
0.00288705
0.00285877
0.00283035
0.00280275
0.00277675
0.00275245
0.00272853
0.00270189
0.00266827
0.00262533
0.00257651
0.00253802
0.00140059
0.000963562
0.000923194
0.000982716
0.00105999
0.00113652
0.00120671
0.00126865
0.00132192
0.00136627
0.00140194
0.00142919
0.00144817
0.00145927
0.0014632
0.00146096
0.00145365
0.00144235
0.00142813
0.00141195
0.00139456
0.00137651
0.00135815
0.00133979
0.00132169
0.00130414
0.00128752
0.00127216
0.00125799
0.00124417
0.00122885
0.00120951
0.00118504
0.00115694
0.00113622
0.00133374
0.000894687
0.000848051
0.000895049
0.000959285
0.00102413
0.00108421
0.00113747
0.00118329
0.00122142
0.00125207
0.00127534
0.00129135
0.00130045
0.00130326
0.00130065
0.00129359
0.00128303
0.00126993
0.00125512
0.00123925
0.00122284
0.00120622
0.00118963
0.00117319
0.00115693
0.00114093
0.00112548
0.0011111
0.00109856
0.00108846
0.00108035
0.00107244
0.00105943
0.0010393
0.00166901
0.00114637
0.000892572
0.000752305
0.000668208
0.00061703
0.000590013
0.000585975
0.000608171
0.000661622
0.000750349
0.000876114
0.00103894
0.00123702
0.00146572
0.00171785
0.00198522
0.00226025
0.00253691
0.00281081
0.00307899
0.00333954
0.00359134
0.00383378
0.00406663
0.00429
0.00450429
0.00471007
0.00490784
0.00509765
0.00527903
0.00545133
0.00561474
0.00577126
0.00592527
0.000893048
0.000609261
0.000553991
0.000542697
0.000544173
0.000550923
0.000559599
0.000568575
0.000576952
0.000584381
0.000590584
0.000595316
0.000598378
0.000599688
0.000599294
0.00059735
0.000594076
0.000589727
0.000584555
0.000578794
0.000572652
0.000566297
0.000559855
0.000553416
0.000547038
0.000540755
0.000534612
0.000528684
0.000523103
0.000518022
0.000513542
0.000509505
0.000505494
0.00050022
0.000493728
0.00167283
0.00116289
0.000968648
0.000958345
0.00107491
0.0012668
0.00149639
0.00174122
0.00198633
0.00222214
0.00244331
0.00264735
0.00283325
0.00300083
0.00315026
0.00328202
0.00339687
0.00349589
0.0035804
0.0036519
0.00371199
0.00376232
0.00380443
0.00383979
0.00386969
0.00389531
0.00391772
0.00393791
0.00395675
0.00397487
0.00399241
0.00400864
0.00402249
0.00403132
0.00403952
0.0010345
0.000814923
0.000697114
0.000651515
0.000631413
0.000621099
0.000615566
0.000612631
0.00061121
0.000610689
0.000610696
0.000610982
0.000611354
0.000611657
0.000611778
0.00061164
0.0006112
0.000610446
0.000609389
0.000608058
0.000606494
0.000604742
0.000602847
0.000600849
0.000598787
0.000596692
0.000594591
0.000592509
0.000590467
0.000588486
0.000586574
0.000584757
0.000582946
0.000581412
0.000578974
0.00084057
0.00064245
0.000544565
0.000506709
0.000490009
0.000481597
0.000477102
0.000474812
0.000473828
0.000473639
0.000473967
0.000474655
0.000475606
0.000476756
0.000478062
0.000479491
0.000481018
0.000482623
0.00048429
0.000486004
0.000487755
0.00048953
0.00049132
0.000493119
0.000494921
0.00049673
0.000498545
0.000500359
0.000502152
0.000503892
0.00050555
0.00050714
0.000508735
0.000510363
0.000512585
0.0014711
0.00102816
0.000977031
0.00103048
0.00110432
0.00117771
0.00124492
0.00130434
0.00135574
0.00139976
0.00143701
0.00146794
0.00149284
0.00151201
0.0015258
0.00153467
0.00153919
0.00154001
0.00153781
0.00153326
0.00152695
0.0015194
0.00151104
0.00150219
0.00149312
0.00148403
0.00147513
0.00146659
0.00145862
0.00145129
0.00144449
0.00143756
0.00143014
0.00141948
0.00141309
0.00167353
0.00116377
0.000980924
0.000990273
0.00112301
0.00132014
0.00154668
0.00178411
0.0020202
0.00224698
0.00246005
0.00265756
0.00283946
0.00300646
0.00315959
0.00330009
0.00342925
0.00354826
0.00365818
0.00375991
0.00385425
0.00394186
0.00402333
0.00409915
0.00416983
0.00423594
0.00429813
0.00435703
0.00441299
0.00446581
0.00451472
0.00455875
0.00459809
0.0046344
0.00467536
0.00148738
0.00104334
0.000998856
0.00106647
0.00115758
0.00124936
0.00133435
0.00140986
0.00147513
0.00152965
0.00157376
0.00160767
0.00163162
0.00164615
0.00165218
0.00165091
0.00164368
0.00163182
0.00161658
0.00159905
0.00158009
0.00156031
0.00154011
0.00151989
0.00149994
0.00148062
0.00146237
0.00144555
0.00143011
0.00141498
0.00139797
0.0013761
0.00134808
0.0013161
0.00129268
0.00146305
0.00101455
0.000965988
0.00102816
0.00111358
0.00119999
0.00128006
0.00135115
0.00141249
0.00146369
0.00150505
0.00153674
0.001559
0.00157236
0.00157767
0.00157607
0.00156884
0.00155722
0.00154242
0.00152545
0.00150715
0.00148813
0.0014688
0.00144949
0.00143034
0.00141137
0.00139269
0.00137464
0.00135793
0.00134353
0.0013322
0.00132341
0.00131473
0.0012997
0.00127478
0.0016689
0.00114589
0.0008917
0.000750675
0.000664331
0.000607314
0.000567465
0.00053846
0.000516873
0.000500898
0.000489783
0.000483585
0.000483073
0.000489683
0.000505418
0.000532688
0.000574103
0.000632375
0.000710326
0.000810774
0.000936028
0.0010872
0.00126376
0.00146351
0.001683
0.0019181
0.00216461
0.0024188
0.00267771
0.00293919
0.00320177
0.00346442
0.00372625
0.00398637
0.00424254
0.00145276
0.00103109
0.00099028
0.00104847
0.00112359
0.00119631
0.00126097
0.00131725
0.00136543
0.00140646
0.00144116
0.00147002
0.00149329
0.0015112
0.00152406
0.00153231
0.00153644
0.00153706
0.00153477
0.00153019
0.00152387
0.00151632
0.00150794
0.00149908
0.00148999
0.00148084
0.00147179
0.00146296
0.00145447
0.00144653
0.00143936
0.00143296
0.00142768
0.00142119
0.00141891
0.00160886
0.00113782
0.00106266
0.00113324
0.00124874
0.00137259
0.00149137
0.00160011
0.0016974
0.00178364
0.00185985
0.00192727
0.00198706
0.00204023
0.00208762
0.00212989
0.00216754
0.00220098
0.00223056
0.0022566
0.00227945
0.00229943
0.00231684
0.00233202
0.00234527
0.00235691
0.00236725
0.00237665
0.00238545
0.00239386
0.00240192
0.00240919
0.00241543
0.00241889
0.00242555
0.00103234
0.000666257
0.000613269
0.000623311
0.000647848
0.000675302
0.000701941
0.000726405
0.000748369
0.000767918
0.000785384
0.000801078
0.000815261
0.000828214
0.000840192
0.000851401
0.000862011
0.000872145
0.000881902
0.000891352
0.00090054
0.000909488
0.000918199
0.00092667
0.000934913
0.000942968
0.000950904
0.000958768
0.000966508
0.000973894
0.000980594
0.000986292
0.00099126
0.000996074
0.00100332
0.000919869
0.000721889
0.000616429
0.000575549
0.00055726
0.000547724
0.000542585
0.00053988
0.000538569
0.000538071
0.000538024
0.000538175
0.000538335
0.00053836
0.000538152
0.000537651
0.000536834
0.000535708
0.000534297
0.000532641
0.000530785
0.000528777
0.00052666
0.000524472
0.000522247
0.000520012
0.000517792
0.000515607
0.000513478
0.000511425
0.00050945
0.000507575
0.000505692
0.000504071
0.000501529
0.000988549
0.000773219
0.000657517
0.000613445
0.000594033
0.000584049
0.000578779
0.000576098
0.00057489
0.000574541
0.000574667
0.000574992
0.000575308
0.00057546
0.000575337
0.000574877
0.000574055
0.000572881
0.000571388
0.000569623
0.000567638
0.000565488
0.000563221
0.000560881
0.000558504
0.000556125
0.00055377
0.000551463
0.000549216
0.000547033
0.000544885
0.000542768
0.000540573
0.000538678
0.000535876
0.00160151
0.00115473
0.00110798
0.00119066
0.00130745
0.00142664
0.00153821
0.00163921
0.00172925
0.00180899
0.00187937
0.00194154
0.0019967
0.00204596
0.00209016
0.00213
0.00216605
0.00219874
0.00222842
0.00225541
0.00227998
0.00230238
0.00232282
0.00234147
0.00235849
0.00237408
0.00238853
0.00240222
0.00241542
0.00242809
0.00243981
0.00244978
0.00245819
0.0024646
0.00247928
0.00167094
0.00115055
0.000918651
0.000839204
0.000875488
0.00100955
0.00121286
0.00145692
0.00172157
0.0019922
0.00225842
0.00251381
0.00275511
0.00298108
0.00319166
0.00338744
0.00356936
0.00373847
0.00389586
0.00404256
0.00417955
0.00430769
0.00442777
0.00454046
0.00464646
0.00474656
0.00484159
0.00493228
0.00501886
0.00510072
0.0051767
0.00524592
0.00530962
0.00537176
0.00544163
0.00167227
0.00115833
0.000962911
0.000954351
0.00107384
0.00126567
0.00149139
0.00173101
0.0019719
0.00220546
0.00242667
0.00263306
0.00282397
0.00299979
0.00316141
0.00331005
0.00344696
0.00357338
0.00369041
0.00379904
0.00390014
0.00399444
0.00408257
0.00416507
0.00424249
0.00431544
0.00438462
0.00445063
0.0045136
0.00457297
0.00462765
0.00467673
0.00472118
0.00476429
0.00481448
0.00164735
0.00116401
0.001075
0.00115841
0.00130483
0.00146878
0.00163051
0.00178139
0.00191835
0.00204105
0.00215036
0.00224759
0.00233424
0.00241179
0.00248157
0.0025448
0.00260249
0.00265548
0.0027045
0.00275011
0.00279281
0.00283296
0.00287082
0.00290662
0.00294056
0.00297298
0.00300422
0.00303458
0.00306399
0.0030918
0.00311699
0.00313872
0.00315771
0.00317662
0.00320195
0.00167145
0.00115484
0.000927176
0.000855485
0.000903031
0.00104712
0.00125542
0.00150022
0.00176305
0.00203033
0.00229222
0.00254246
0.00277768
0.0029963
0.00319774
0.00338194
0.00354911
0.0036997
0.00383443
0.00395426
0.00406039
0.00415415
0.00423697
0.00431029
0.00437547
0.00443382
0.00448658
0.00453493
0.00457994
0.00462245
0.00466289
0.00470096
0.00473619
0.00476655
0.00479813
0.00165963
0.00118691
0.00109935
0.00119221
0.00135431
0.001538
0.0017217
0.00189422
0.00204999
0.00218586
0.00229972
0.00239141
0.00246146
0.0025112
0.00254271
0.00255864
0.00256181
0.00255501
0.00254077
0.00252126
0.0024982
0.00247296
0.00244654
0.00241961
0.00239252
0.00236548
0.00233871
0.00231271
0.00228844
0.00226724
0.00225031
0.00223727
0.00222511
0.00220579
0.00217263
0.00165939
0.00118938
0.00110611
0.0011981
0.00135673
0.00153734
0.00171869
0.00188932
0.0020434
0.00217798
0.00229106
0.00238223
0.0024519
0.00250136
0.00253267
0.00254842
0.00255142
0.00254449
0.00253014
0.00251055
0.00248746
0.00246214
0.0024355
0.00240829
0.00238109
0.00235452
0.00232927
0.00230591
0.00228443
0.00226354
0.00224026
0.00221058
0.00217229
0.00212814
0.0020938
0.00166896
0.00114644
0.000892381
0.000751423
0.000665253
0.000608929
0.000570961
0.000546234
0.000533383
0.000533827
0.000551225
0.000590644
0.000657162
0.000754579
0.000885191
0.00104998
0.00124799
0.00147559
0.00172677
0.00199424
0.00227082
0.00255035
0.00282814
0.00310097
0.00336684
0.00362464
0.00387394
0.00411473
0.00434725
0.00457172
0.00478812
0.00499626
0.00519606
0.005388
0.00557378
0.00166975
0.0011476
0.000899746
0.000779063
0.000740189
0.000774129
0.000878509
0.00104263
0.00125135
0.00149162
0.00175194
0.00202183
0.00229285
0.00255891
0.00281602
0.00306181
0.00329509
0.0035155
0.00372312
0.00391853
0.00410239
0.00427542
0.00443833
0.00459182
0.00473659
0.00487347
0.00500336
0.00512708
0.00524506
0.005357
0.00546198
0.00555921
0.00564967
0.00573683
0.00582911
0.00167618
0.0011858
0.00104959
0.00112565
0.00131658
0.00154973
0.00179077
0.00202407
0.00224199
0.00244097
0.00261969
0.00277782
0.00291555
0.00303338
0.0031322
0.00321321
0.00327797
0.00332834
0.00336633
0.00339399
0.00341327
0.00342597
0.00343363
0.0034376
0.00343893
0.00343849
0.00343693
0.00343479
0.00343251
0.00343056
0.00342941
0.00342931
0.00343076
0.00343151
0.00343723
0.00166304
0.00119596
0.00111687
0.00121127
0.0013704
0.00154661
0.0017185
0.00187615
0.00201625
0.0021387
0.00224414
0.00233335
0.00240706
0.002466
0.00251115
0.00254378
0.00256541
0.00257774
0.00258252
0.00258142
0.00257591
0.00256727
0.00255652
0.00254444
0.00253165
0.00251862
0.00250578
0.00249353
0.00248227
0.00247215
0.00246296
0.0024536
0.00244278
0.0024272
0.00241207
0.00132025
0.000874283
0.000808884
0.000837201
0.000886158
0.000938552
0.000988767
0.00103465
0.00107554
0.00111151
0.00114302
0.00117055
0.00119456
0.00121543
0.00123343
0.00124879
0.00126167
0.00127227
0.00128079
0.00128745
0.0012925
0.00129617
0.00129869
0.00130027
0.00130113
0.00130144
0.00130139
0.00130119
0.00130101
0.00130097
0.00130101
0.00130067
0.00129976
0.00129626
0.00129693
0.00167397
0.001189
0.00108151
0.00117307
0.00135001
0.00155422
0.001762
0.0019621
0.00214898
0.00232032
0.00247554
0.00261575
0.00274226
0.00285643
0.00295948
0.00305256
0.00313664
0.00321258
0.00328113
0.00334297
0.00339878
0.00344918
0.00349474
0.00353596
0.00357328
0.00360721
0.00363837
0.00366746
0.00369505
0.00372126
0.00374559
0.00376705
0.00378551
0.00380145
0.00382267
0.00166913
0.00114759
0.000894153
0.00075554
0.000675893
0.000634512
0.000626106
0.000652713
0.000718316
0.000824959
0.000972216
0.00115835
0.00137968
0.00162954
0.00189896
0.00217861
0.00246043
0.00273848
0.00300888
0.00326935
0.0035187
0.00375638
0.00398227
0.00419652
0.00439944
0.00459158
0.00477365
0.00494646
0.00511088
0.00526753
0.00541655
0.00555779
0.00569132
0.00581802
0.00594146
0.00166972
0.0011495
0.000900595
0.000775272
0.000726292
0.00074329
0.000825973
0.000968908
0.00116064
0.00138951
0.00164445
0.00191437
0.0021894
0.00246185
0.00272623
0.00297898
0.0032178
0.00344139
0.00364915
0.00384099
0.00401737
0.00417919
0.00432751
0.00446349
0.00458845
0.00470369
0.00481051
0.00491021
0.00500398
0.00509277
0.0051771
0.00525687
0.00533182
0.00540112
0.0054691
0.00165828
0.0011984
0.00113065
0.00122993
0.00138698
0.00155515
0.00171528
0.00186024
0.00198819
0.00209947
0.00219493
0.00227538
0.0023415
0.00239409
0.00243413
0.00246283
0.00248161
0.00249199
0.00249552
0.00249369
0.00248784
0.0024791
0.00246843
0.00245656
0.00244406
0.00243134
0.00241867
0.0024063
0.00239448
0.00238357
0.00237399
0.00236588
0.00235951
0.00235214
0.0023478
0.00162534
0.00115505
0.00108606
0.00117284
0.00130883
0.00145282
0.0015895
0.00171371
0.00182454
0.00192261
0.00200927
0.00208572
0.00215358
0.00221419
0.00226869
0.00231812
0.00236327
0.00240481
0.0024433
0.00247915
0.00251272
0.00254425
0.00257392
0.00260188
0.00262828
0.00265332
0.00267728
0.00270044
0.00272286
0.0027442
0.00276376
0.00278065
0.00279498
0.0028078
0.00282523
0.00161709
0.00116016
0.00109787
0.00117584
0.00129384
0.00141691
0.00153183
0.00163472
0.00172456
0.00180222
0.00186869
0.00192482
0.0019712
0.00200841
0.00203707
0.0020579
0.00207178
0.00207971
0.00208271
0.00208181
0.00207793
0.00207188
0.00206432
0.0020558
0.00204673
0.00203744
0.00202824
0.00201943
0.00201128
0.00200395
0.00199733
0.0019906
0.00198307
0.0019715
0.00196353
0.00141208
0.000935316
0.000860904
0.000901011
0.000968313
0.00103801
0.00110307
0.00116145
0.00121295
0.00125821
0.00129807
0.00133337
0.00136486
0.00139318
0.00141888
0.00144246
0.0014643
0.00148473
0.00150402
0.00152237
0.00153997
0.00155693
0.00157331
0.00158916
0.00160458
0.00161973
0.00163488
0.00165013
0.00166524
0.0016795
0.00169197
0.00170223
0.00171146
0.00172276
0.0017398
0.00166925
0.00115112
0.000898031
0.000757487
0.000671903
0.000617154
0.000582826
0.000565332
0.000565265
0.000586022
0.000632464
0.000709383
0.000820607
0.000969024
0.00115612
0.0013805
0.00163701
0.00191733
0.0022116
0.00251021
0.00280499
0.0030898
0.00336062
0.00361521
0.00385275
0.00407338
0.00427794
0.00446768
0.0046441
0.00480879
0.00496328
0.00510867
0.00524574
0.0053737
0.00549435
0.00167382
0.00116299
0.000981673
0.000998136
0.0011426
0.00134961
0.0015813
0.0018202
0.00205578
0.00228128
0.00249295
0.00268923
0.00286995
0.00303575
0.00318769
0.00332698
0.00345487
0.00357259
0.0036813
0.00378209
0.00387591
0.00396358
0.00404572
0.0041229
0.00419567
0.00426481
0.00433123
0.00439564
0.00445798
0.00451698
0.00457066
0.00461783
0.00466072
0.00470544
0.00476354
0.000952107
0.000733326
0.000622305
0.000580882
0.000562599
0.00055322
0.00054831
0.000545891
0.000544924
0.000544805
0.00054519
0.000545857
0.000546646
0.000547429
0.000548108
0.000548607
0.000548877
0.000548895
0.000548657
0.000548179
0.000547484
0.000546606
0.000545577
0.000544431
0.000543201
0.000541915
0.000540601
0.000539283
0.000537977
0.000536694
0.000535419
0.000534151
0.000532799
0.000531629
0.000529646
0.00167069
0.00114996
0.000914495
0.000826202
0.000847685
0.000964315
0.00115179
0.00138294
0.00163834
0.00190402
0.00216959
0.00242796
0.00267491
0.00290828
0.00312729
0.00333207
0.0035232
0.00370151
0.00386787
0.00402317
0.00416829
0.00430403
0.0044311
0.00455019
0.00466196
0.00476718
0.00486667
0.00496119
0.00505109
0.00513604
0.00521514
0.00528757
0.00535418
0.00541796
0.00548784
0.00166892
0.00114613
0.000892142
0.000751205
0.000664888
0.000607859
0.000567932
0.000538715
0.000516647
0.000499686
0.000486697
0.000477154
0.000471007
0.000468632
0.000470819
0.000478771
0.000494087
0.000518731
0.000555025
0.000605711
0.00067403
0.000763663
0.000878362
0.00102137
0.0011948
0.00139926
0.00163364
0.00189519
0.00217989
0.00248292
0.00279912
0.00312352
0.00345146
0.00377876
0.00409979
0.00163323
0.00115404
0.00107278
0.00115305
0.00128924
0.00143888
0.00158449
0.00171906
0.00184039
0.00194862
0.00204483
0.00213043
0.00220684
0.00227535
0.00233711
0.00239315
0.00244433
0.0024914
0.00253501
0.00257574
0.00261403
0.00265023
0.00268458
0.00271728
0.00274856
0.00277882
0.00280853
0.00283803
0.00286703
0.00289443
0.00291868
0.00293895
0.00295695
0.00297758
0.00300787
0.00167216
0.00115502
0.000935645
0.000881923
0.000952654
0.00111407
0.00132901
0.00157225
0.00182767
0.00208378
0.00233258
0.00256924
0.00279156
0.00299891
0.00319145
0.00336989
0.00353513
0.00368814
0.00382985
0.00396112
0.00408273
0.00419542
0.00429985
0.00439664
0.00448644
0.00456995
0.00464796
0.00472127
0.00479049
0.00485572
0.00491655
0.00497213
0.00502245
0.00506844
0.00511766
0.000899348
0.00064097
0.000578386
0.000559797
0.000555861
0.000558361
0.000563504
0.000569644
0.000575883
0.000581801
0.00058717
0.000591813
0.000595599
0.000598431
0.000600263
0.000601102
0.000601006
0.00060007
0.000598416
0.000596178
0.000593486
0.000590461
0.000587208
0.000583813
0.000580348
0.000576876
0.000573455
0.000570142
0.000566985
0.000563994
0.000561127
0.000558204
0.000555147
0.000551336
0.000548587
0.000945481
0.000734834
0.00062375
0.000579206
0.000559405
0.000549397
0.000544013
0.000541222
0.000539978
0.000539685
0.000540011
0.000540757
0.000541806
0.000543084
0.000544539
0.000546138
0.000547851
0.000549658
0.000551538
0.000553477
0.00055546
0.000557473
0.000559505
0.000561547
0.000563596
0.000565649
0.000567704
0.000569748
0.000571757
0.000573699
0.000575552
0.000577343
0.000579154
0.000581018
0.000583482
0.00167144
0.00115179
0.0009182
0.000833424
0.000861216
0.000986376
0.0011825
0.00142176
0.00168501
0.00195832
0.00223119
0.00249643
0.00274973
0.00298886
0.00321292
0.00342187
0.00361615
0.00379656
0.00396408
0.00411975
0.0042646
0.00439957
0.00452551
0.00464312
0.0047531
0.00485627
0.00495363
0.00504618
0.00513453
0.00521836
0.00529646
0.00536754
0.00543235
0.00549437
0.00556375
0.00166997
0.00115494
0.00090376
0.000769465
0.000700449
0.000682452
0.000717166
0.000809229
0.000956629
0.00115047
0.00137928
0.00163042
0.00189093
0.00214919
0.00239602
0.002625
0.00283212
0.00301547
0.00317479
0.00331105
0.00342602
0.00352198
0.00360137
0.00366662
0.00372005
0.00376376
0.00379971
0.00382967
0.00385527
0.00387782
0.00389808
0.00391586
0.0039302
0.00393865
0.00394356
0.00166905
0.00114841
0.00089479
0.000754078
0.000668296
0.000612909
0.000576988
0.000556184
0.000550062
0.000560859
0.000592468
0.000649181
0.000734624
0.000851521
0.00100154
0.00118427
0.00139621
0.00163116
0.00188135
0.00213992
0.00240164
0.00266262
0.00292049
0.00317391
0.00342211
0.00366456
0.00390093
0.00413101
0.00435475
0.00457213
0.0047831
0.0049874
0.00518462
0.005374
0.00555595
0.00155619
0.00106838
0.000985295
0.00104748
0.00115319
0.00126533
0.00137125
0.001467
0.00155199
0.00162692
0.00169291
0.00175109
0.00180259
0.0018485
0.00188981
0.00192734
0.00196174
0.00199355
0.00202322
0.00205111
0.00207749
0.00210255
0.00212643
0.00214922
0.00217105
0.00219211
0.00221263
0.0022328
0.00225248
0.00227112
0.00228787
0.00230208
0.00231445
0.00232714
0.00234527
0.0016086
0.00114873
0.00108972
0.00117006
0.00128746
0.00140674
0.00151693
0.00161493
0.00170143
0.00177747
0.00184454
0.00190399
0.00195694
0.00200437
0.00204716
0.00208603
0.00212153
0.00215414
0.00218419
0.00221196
0.00223769
0.00226155
0.00228369
0.00230423
0.0023233
0.00234106
0.00235772
0.00237353
0.00238868
0.00240316
0.00241675
0.00242882
0.00243938
0.00244736
0.00246174
0.00166918
0.00114768
0.000894539
0.000756321
0.000677727
0.000639023
0.000636579
0.000674727
0.000759308
0.000892356
0.00107106
0.00128973
0.00154016
0.00181209
0.00209517
0.00238072
0.00266245
0.0029362
0.00319951
0.00345103
0.00369015
0.00391675
0.00413101
0.00433331
0.00452418
0.00470435
0.00487476
0.00503651
0.00519064
0.0053378
0.00547798
0.00561071
0.00573605
0.00585523
0.00597396
0.00144197
0.00098959
0.000935079
0.000986341
0.00106003
0.00113388
0.0012019
0.00126273
0.0013165
0.0013639
0.00140568
0.00144257
0.00147533
0.00150469
0.00153121
0.00155533
0.00157739