/*--------------------------------*- C++ -*----------------------------------*\
| =========                 |                                                 |
| \\      /  F ield         | OpenFOAM: The Open Source CFD Toolbox           |
|  \\    /   O peration     | Version:  2.4.x                                 |
|   \\  /    A nd           | Web:      www.OpenFOAM.org                      |
|    \\/     M anipulation  |                                                 |
\*---------------------------------------------------------------------------*/
FoamFile
{
    version     2.0;
    format      ascii;
    class       volScalarField;
    location    "9970/coolant";
    object      p_rgh;
}
// * * * * * * * * * * * * * * * * * * * * * * * * * * * * * * * * * * * * * //

dimensions      [1 -1 -2 0 0 0 0];

internalField   nonuniform List<scalar> 
109760
(
5.25227
4.64041
4.31252
4.10463
3.92164
3.75366
3.59931
3.45421
3.3152
3.18061
3.04932
2.92044
2.79324
2.66719
2.54186
2.41694
2.29221
2.16753
2.04284
1.9181
1.79331
1.66849
1.54369
1.41894
1.29428
1.16976
1.04541
0.921255
0.797323
0.673643
0.550216
0.427172
0.304425
0.182276
0.0627766
5.33216
4.59386
4.30278
4.09902
3.91741
3.75112
3.59759
3.4528
3.31396
3.17948
3.04825
2.91942
2.79227
2.66627
2.54098
2.4161
2.29141
2.16678
2.04213
1.91742
1.79266
1.66788
1.5431
1.41838
1.29374
1.16924
1.04491
0.920774
0.79686
0.673198
0.549783
0.426758
0.303962
0.181866
0.0612541
5.54498
4.51751
4.28104
4.08643
3.90733
3.74424
3.59264
3.44898
3.311
3.17724
3.04663
2.91833
2.79164
2.66601
2.541
2.41631
2.29174
2.16717
2.04252
1.9178
1.793
1.66816
1.54333
1.41855
1.29387
1.16932
1.04494
0.92077
0.796821
0.673143
0.549685
0.426696
0.303546
0.182206
0.0551112
5.38624
4.56439
4.2979
4.09535
3.9149
3.74929
3.59605
3.45144
3.31275
3.17839
3.04728
2.91855
2.79149
2.66556
2.54033
2.41551
2.29087
2.16628
2.04166
1.91699
1.79226
1.6675
1.54275
1.41804
1.29343
1.16894
1.04463
0.920502
0.796603
0.672959
0.549563
0.426555
0.303778
0.18163
0.0613731
5.46848
4.54124
4.28878
4.09057
3.91106
3.74664
3.59417
3.45002
3.31166
3.17758
3.04668
2.91811
2.79119
2.66537
2.54024
2.41548
2.29088
2.16631
2.04171
1.91704
1.79231
1.66755
1.54279
1.41807
1.29345
1.16895
1.04462
0.920491
0.796579
0.672925
0.549506
0.426503
0.303588
0.181762
0.0586852
5.32079
4.59858
4.30413
4.09951
3.91794
3.7515
3.59787
3.45305
3.31419
3.17968
3.04843
2.91958
2.79241
2.66638
2.54108
2.41619
2.29149
2.16685
2.0422
1.91749
1.79273
1.66794
1.54317
1.41844
1.29381
1.16931
1.04498
0.920842
0.796926
0.673263
0.549848
0.426823
0.30406
0.181913
0.0619427
5.17018
4.68688
4.32397
4.11003
3.9269
3.75679
3.60124
3.45567
3.31635
3.18154
3.0501
2.92112
2.79386
2.66777
2.54243
2.41751
2.29279
2.16814
2.04348
1.91877
1.79402
1.66923
1.54446
1.41974
1.29511
1.17062
1.04629
0.922164
0.798256
0.6746
0.551204
0.428176
0.305505
0.183465
0.0655453
5.36352
4.58254
4.29825
4.09664
3.91553
3.74983
3.59663
3.45202
3.31332
3.17894
3.04781
2.91906
2.79198
2.66603
2.54079
2.41594
2.29128
2.16666
2.04202
1.91732
1.79257
1.66779
1.54302
1.41829
1.29366
1.16915
1.04482
0.920685
0.796769
0.673109
0.549688
0.426669
0.303815
0.181837
0.0600779
5.20008
4.67095
4.31935
4.1081
3.92489
3.75556
3.60048
3.4551
3.31591
3.18119
3.04982
2.92088
2.79366
2.6676
2.54227
2.41737
2.29266
2.16802
2.04336
1.91865
1.79389
1.66909
1.54431
1.41956
1.29491
1.17038
1.04603
0.921866
0.797926
0.674238
0.550808
0.427753
0.30503
0.182912
0.0640839
5.54401
4.51646
4.28104
4.08656
3.90713
3.74424
3.59273
3.4491
3.31115
3.17742
3.04686
2.91861
2.79196
2.66635
2.54136
2.41666
2.29208
2.16748
2.04281
1.91805
1.79323
1.66837
1.54351
1.41871
1.29401
1.16945
1.04507
0.920891
0.796954
0.673273
0.54982
0.426809
0.303554
0.182301
0.054159
5.54437
4.5158
4.28103
4.08662
3.90721
3.7443
3.59277
3.44913
3.31117
3.17743
3.04686
2.91859
2.79194
2.66632
2.54132
2.41663
2.29204
2.16744
2.04276
1.91801
1.79319
1.66833
1.54348
1.41868
1.29398
1.16942
1.04504
0.920855
0.796899
0.67322
0.549755
0.42678
0.303557
0.182369
0.0541764
5.54068
4.51746
4.28121
4.08675
3.90733
3.74433
3.59276
3.44909
3.31111
3.17736
3.04678
2.91851
2.79184
2.66623
2.54123
2.41654
2.29196
2.16737
2.04271
1.91796
1.79315
1.6683
1.54345
1.41866
1.29396
1.16941
1.04503
0.920854
0.796919
0.673239
0.549788
0.426775
0.303545
0.182245
0.0544387
5.53989
4.51711
4.28115
4.08672
3.90736
3.74436
3.59279
3.44912
3.31114
3.17739
3.0468
2.91852
2.79185
2.66623
2.54122
2.41653
2.29194
2.16735
2.04269
1.91794
1.79313
1.66828
1.54343
1.41864
1.29395
1.16939
1.04501
0.920829
0.796875
0.673196
0.549734
0.426753
0.303553
0.182316
0.0544832
5.47519
4.54003
4.28849
4.09037
3.91104
3.74663
3.59416
3.45001
3.31166
3.17756
3.04666
2.91808
2.79116
2.66533
2.54019
2.41542
2.29082
2.16625
2.04165
1.91698
1.79225
1.66749
1.54274
1.41802
1.2934
1.16891
1.04459
0.920455
0.796546
0.672894
0.549478
0.426476
0.303577
0.181723
0.0589133
5.40622
4.57087
4.29251
4.09425
3.91325
3.7484
3.59577
3.45145
3.31294
3.17871
3.04771
2.91906
2.79207
2.66619
2.541
2.41619
2.29154
2.16693
2.04227
1.91755
1.79278
1.66797
1.54317
1.41842
1.29377
1.16924
1.04489
0.920743
0.796815
0.673147
0.549708
0.426694
0.303695
0.18199
0.0575173
5.39398
4.5711
4.29453
4.09479
3.91397
3.7488
3.59592
3.45147
3.31289
3.17861
3.04756
2.91887
2.79185
2.66595
2.54075
2.41593
2.29129
2.16669
2.04205
1.91735
1.7926
1.66782
1.54304
1.41831
1.29367
1.16916
1.04482
0.920681
0.796761
0.6731
0.549672
0.426658
0.303737
0.181892
0.0588477
5.39036
4.56742
4.29586
4.0948
3.91427
3.7489
3.59584
3.45131
3.31268
3.17838
3.04731
2.9186
2.79157
2.66566
2.54045
2.41563
2.291
2.1664
2.04178
1.9171
1.79236
1.66759
1.54283
1.41812
1.29349
1.169
1.04468
0.920547
0.796638
0.672986
0.549573
0.426562
0.303718
0.181735
0.0601001
5.46487
4.5428
4.28808
4.09076
3.91081
3.74656
3.59422
3.45011
3.31178
3.17773
3.04688
2.91836
2.79148
2.6657
2.54059
2.41585
2.29126
2.16669
2.04207
1.91738
1.79263
1.66784
1.54306
1.41832
1.29367
1.16916
1.04481
0.920662
0.796735
0.673069
0.549631
0.426625
0.303615
0.181966
0.0572766
5.48615
4.53356
4.28841
4.09062
3.91113
3.74668
3.59418
3.45
3.31162
3.17752
3.04662
2.91806
2.79114
2.66533
2.5402
2.41544
2.29085
2.16629
2.04168
1.91701
1.79229
1.66752
1.54276
1.41805
1.29342
1.16892
1.0446
0.920467
0.796563
0.672912
0.549503
0.426495
0.303574
0.181704
0.0586698
5.3317
4.59225
4.30301
4.09872
3.91732
3.75102
3.59745
3.45264
3.3138
3.17931
3.04809
2.91926
2.79211
2.66611
2.54082
2.41595
2.29126
2.16664
2.04199
1.91729
1.79254
1.66776
1.54299
1.41827
1.29364
1.16915
1.04482
0.920689
0.796779
0.673121
0.549712
0.426693
0.303932
0.181785
0.0617911
5.45403
4.54525
4.29054
4.09138
3.91181
3.74715
3.59452
3.45027
3.31185
3.1777
3.04676
2.91815
2.7912
2.66535
2.54019
2.41541
2.2908
2.16623
2.04163
1.91696
1.79223
1.66747
1.54272
1.41801
1.29339
1.1689
1.04458
0.920456
0.796551
0.672902
0.549492
0.426489
0.303621
0.181702
0.0595006
5.513
4.53165
4.28356
4.08865
3.9085
3.74541
3.59376
3.44999
3.3119
3.17804
3.04735
2.91898
2.79223
2.66654
2.54146
2.41671
2.29208
2.16744
2.04275
1.91797
1.79314
1.66828
1.54342
1.41863
1.29393
1.16937
1.04499
0.92082
0.796891
0.673221
0.549775
0.426767
0.303488
0.182244
0.0537934
5.5131
4.53153
4.28354
4.08865
3.90851
3.74542
3.59377
3.44999
3.3119
3.17804
3.04735
2.91898
2.79223
2.66654
2.54146
2.41671
2.29208
2.16744
2.04275
1.91797
1.79314
1.66828
1.54342
1.41863
1.29393
1.16937
1.04499
0.920809
0.796854
0.673174
0.549704
0.426724
0.30349
0.182344
0.0538279
5.56407
4.50906
4.27976
4.08567
3.90652
3.74382
3.59243
3.4489
3.31102
3.17735
3.04684
2.91863
2.79202
2.66644
2.54145
2.41677
2.29218
2.16758
2.0429
1.91813
1.7933
1.66843
1.54357
1.41877
1.29406
1.16949
1.0451
0.920913
0.796953
0.673274
0.549811
0.426845
0.303612
0.182445
0.0540154
5.56703
4.50857
4.27961
4.08554
3.90643
3.74375
3.59238
3.44886
3.31099
3.17733
3.04682
2.91862
2.79201
2.66643
2.54145
2.41677
2.29219
2.16758
2.0429
1.91814
1.79331
1.66844
1.54358
1.41877
1.29406
1.1695
1.04511
0.92093
0.796989
0.673304
0.549848
0.426838
0.303573
0.182367
0.0539946
5.24182
4.64617
4.31381
4.10532
3.92227
3.75404
3.59956
3.45441
3.31538
3.18077
3.04948
2.9206
2.79342
2.66738
2.54206
2.41715
2.29243
2.16776
2.04307
1.91832
1.79353
1.66872
1.54391
1.41915
1.29449
1.16997
1.04561
0.921453
0.797516
0.673832
0.550401
0.427352
0.304608
0.182454
0.0631316
5.58233
4.5066
4.27879
4.08503
3.90616
3.74356
3.59224
3.44875
3.31091
3.17727
3.04678
2.91858
2.79198
2.66641
2.54143
2.41676
2.29218
2.16758
2.0429
1.91814
1.79331
1.66844
1.54358
1.41877
1.29407
1.1695
1.04511
0.920931
0.796989
0.673301
0.549845
0.426832
0.303581
0.182348
0.0541501
5.41594
4.56752
4.29147
4.09369
3.91275
3.74809
3.59558
3.45133
3.31287
3.17869
3.04771
2.91908
2.79212
2.66625
2.54107
2.41626
2.29161
2.16699
2.04233
1.91761
1.79282
1.66801
1.5432
1.41845
1.29378
1.16926
1.0449
0.92075
0.796819
0.67315
0.549708
0.426696
0.303672
0.182019
0.0570994
5.56788
4.51754
4.281
4.08637
3.90729
3.74423
3.59263
3.44896
3.31098
3.17721
3.0466
2.9183
2.79161
2.66598
2.54098
2.4163
2.29174
2.16717
2.04253
1.91781
1.79302
1.66819
1.54336
1.41858
1.29389
1.16934
1.04497
0.9208
0.796866
0.673188
0.549742
0.426723
0.303551
0.182118
0.05517
5.45674
4.55045
4.29454
4.09299
3.91336
3.74821
3.59523
3.45079
3.31223
3.17798
3.04694
2.91826
2.79124
2.66534
2.54014
2.41534
2.29071
2.16614
2.04153
1.91686
1.79214
1.66739
1.54264
1.41794
1.29333
1.16885
1.04454
0.920417
0.796523
0.672888
0.549501
0.426502
0.303727
0.181558
0.0613894
5.52421
4.52305
4.28242
4.08739
3.90798
3.74468
3.59294
3.44919
3.31115
3.17733
3.04668
2.91834
2.79162
2.66596
2.54094
2.41624
2.29167
2.16709
2.04245
1.91772
1.79293
1.66811
1.54328
1.41851
1.29383
1.16928
1.04491
0.920742
0.796796
0.67312
0.549665
0.426674
0.303534
0.182171
0.0552551
5.35123
4.58683
4.29979
4.09729
3.9161
3.75019
3.59688
3.45222
3.31349
3.17909
3.04793
2.91915
2.79205
2.66608
2.54082
2.41597
2.29129
2.16667
2.04203
1.91733
1.79257
1.66779
1.54302
1.4183
1.29367
1.16917
1.04484
0.920701
0.796787
0.673128
0.54971
0.42669
0.303867
0.181833
0.0606843
5.56047
4.5104
4.28009
4.08587
3.90665
3.74391
3.5925
3.44894
3.31105
3.17737
3.04684
2.91863
2.79201
2.66642
2.54144
2.41675
2.29216
2.16756
2.04288
1.91812
1.79328
1.66842
1.54356
1.41875
1.29405
1.16948
1.04509
0.920902
0.796942
0.673263
0.5498
0.426834
0.3036
0.182438
0.0539968
5.56185
4.51007
4.27999
4.0858
3.9066
3.74388
3.59247
3.44892
3.31103
3.17735
3.04684
2.91862
2.79201
2.66642
2.54144
2.41675
2.29217
2.16756
2.04288
1.91812
1.79329
1.66842
1.54356
1.41875
1.29405
1.16948
1.0451
0.920917
0.796977
0.673295
0.54984
0.426831
0.303563
0.182357
0.053972
5.20723
4.66937
4.31774
4.1076
3.92442
3.75523
3.60028
3.45496
3.3158
3.18111
3.04976
2.92084
2.79363
2.66758
2.54227
2.41737
2.29266
2.16802
2.04336
1.91865
1.79389
1.6691
1.54431
1.41958
1.29493
1.17041
1.04605
0.921892
0.797952
0.674264
0.550828
0.427767
0.305012
0.182897
0.0632817
5.52407
4.52256
4.28234
4.08743
3.90796
3.74468
3.59295
3.44919
3.31113
3.1773
3.04665
2.91831
2.79159
2.66594
2.54092
2.41622
2.29165
2.16708
2.04244
1.91772
1.79293
1.6681
1.54328
1.4185
1.29382
1.16928
1.04491
0.920744
0.796815
0.673141
0.549698
0.426682
0.303515
0.182082
0.0551845
5.44036
4.55037
4.29042
4.09195
3.91188
3.74726
3.59468
3.45044
3.31202
3.17788
3.04695
2.91836
2.79143
2.6656
2.54045
2.41568
2.29108
2.1665
2.04189
1.91721
1.79247
1.6677
1.54293
1.4182
1.29357
1.16907
1.04473
0.920592
0.796673
0.673014
0.549588
0.426581
0.303635
0.181857
0.0583064
5.4373
4.54974
4.29304
4.09246
3.91282
3.74784
3.59498
3.45061
3.3121
3.17788
3.04688
2.91823
2.79124
2.66535
2.54017
2.41538
2.29076
2.16618
2.04157
1.91691
1.79218
1.66743
1.54268
1.41798
1.29336
1.16888
1.04457
0.920444
0.796545
0.672903
0.549505
0.426503
0.303692
0.181632
0.0606188
5.58148
4.51439
4.28018
4.08584
3.90685
3.74396
3.59246
3.44887
3.31093
3.17721
3.04664
2.91837
2.79171
2.6661
2.54111
2.41643
2.29186
2.16729
2.04264
1.9179
1.7931
1.66825
1.54341
1.41862
1.29393
1.16937
1.045
0.920826
0.79689
0.673209
0.54976
0.426743
0.303543
0.182175
0.0547993
5.5815
4.51372
4.28005
4.08571
3.90682
3.74393
3.59245
3.44887
3.31096
3.17724
3.04668
2.91842
2.79176
2.66615
2.54115
2.41647
2.2919
2.16732
2.04267
1.91793
1.79312
1.66827
1.54343
1.41864
1.29395
1.16939
1.04501
0.920829
0.796876
0.673194
0.549732
0.426746
0.303576
0.182279
0.0548549
5.43294
4.54876
4.29273
4.09321
3.91291
3.74793
3.5951
3.45071
3.31218
3.17796
3.04697
2.91835
2.79138
2.66552
2.54036
2.41558
2.29097
2.1664
2.04179
1.91711
1.79238
1.66761
1.54285
1.41813
1.2935
1.16901
1.04468
0.920547
0.796641
0.672988
0.549578
0.426565
0.30366
0.181752
0.0591047
5.3175
4.60278
4.30391
4.09963
3.91797
3.75151
3.59792
3.45313
3.31429
3.17979
3.04855
2.91969
2.79252
2.66649
2.54118
2.41628
2.29158
2.16694
2.04227
1.91756
1.79279
1.668
1.54322
1.41849
1.29386
1.16935
1.04502
0.920876
0.796956
0.67329
0.549871
0.426844
0.304064
0.181954
0.061657
5.34156
4.59054
4.30128
4.09804
3.91676
3.75066
3.59721
3.45247
3.31367
3.17922
3.04803
2.91922
2.79209
2.66611
2.54083
2.41597
2.29129
2.16666
2.04201
1.91731
1.79256
1.66778
1.54301
1.41829
1.29366
1.16916
1.04484
0.920701
0.796788
0.67313
0.549715
0.426695
0.3039
0.181815
0.0611731
5.38625
4.56747
4.29724
4.09525
3.91479
3.74925
3.59606
3.45147
3.31279
3.17844
3.04734
2.91861
2.79156
2.66563
2.54041
2.41558
2.29094
2.16635
2.04173
1.91705
1.79232
1.66756
1.5428
1.4181
1.29348
1.16899
1.04467
0.920547
0.796643
0.672995
0.549589
0.426579
0.303777
0.181694
0.060917
5.3771
4.58425
4.29529
4.09597
3.91452
3.74922
3.59639
3.45199
3.31343
3.17915
3.04809
2.91938
2.79234
2.66641
2.54118
2.41634
2.29167
2.16703
2.04237
1.91764
1.79285
1.66804
1.54324
1.41849
1.29383
1.1693
1.04495
0.920797
0.796868
0.673198
0.549761
0.42674
0.303777
0.181989
0.0581383
5.53021
4.52251
4.28214
4.08751
3.90775
3.74478
3.5932
3.44949
3.31147
3.17768
3.04706
2.91876
2.79207
2.66643
2.5414
2.41669
2.29208
2.16746
2.04278
1.91802
1.79319
1.66833
1.54347
1.41867
1.29397
1.16941
1.04503
0.920859
0.796926
0.673251
0.549802
0.426793
0.303518
0.182287
0.0539027
5.53124
4.52205
4.28203
4.08739
3.90767
3.74473
3.59317
3.44948
3.31147
3.17769
3.04707
2.91878
2.79209
2.66645
2.54142
2.4167
2.2921
2.16748
2.04279
1.91803
1.7932
1.66834
1.54348
1.41868
1.29398
1.16942
1.04504
0.920854
0.796897
0.673217
0.549749
0.426772
0.303537
0.182385
0.0539335
5.22725
4.65645
4.31521
4.10623
3.92312
3.75448
3.59982
3.45461
3.31553
3.18089
3.04958
2.9207
2.79353
2.66751
2.54222
2.41733
2.29264
2.168
2.04332
1.91859
1.7938
1.66899
1.54418
1.41942
1.29475
1.17022
1.04586
0.921695
0.797753
0.674064
0.550628
0.427572
0.304817
0.182685
0.063155
5.29308
4.61766
4.30692
4.10145
3.91923
3.75221
3.59836
3.45346
3.31456
3.18003
3.04876
2.91988
2.79269
2.66664
2.54132
2.41641
2.29169
2.16703
2.04235
1.91763
1.79285
1.66805
1.54326
1.41853
1.29389
1.16938
1.04504
0.920897
0.796976
0.673308
0.549888
0.426859
0.304093
0.181973
0.0619293
5.45699
4.55029
4.28741
4.09162
3.91098
3.74692
3.59471
3.4506
3.31225
3.17818
3.04732
2.9188
2.79193
2.66615
2.54103
2.41626
2.29164
2.16703
2.04237
1.91764
1.79285
1.66803
1.54321
1.41844
1.29377
1.16924
1.04488
0.920722
0.7968
0.673133
0.549698
0.426683
0.30356
0.182026
0.0557172
5.49853
4.53295
4.28405
4.08878
3.90888
3.74539
3.59352
3.44966
3.31152
3.17762
3.04691
2.91853
2.79177
2.66608
2.54103
2.41631
2.29172
2.16712
2.04247
1.91774
1.79294
1.66811
1.54328
1.41851
1.29383
1.16928
1.04491
0.920746
0.796802
0.673127
0.549671
0.426678
0.303525
0.182177
0.0550897
5.48843
4.53408
4.28576
4.0891
3.90959
3.74566
3.59353
3.44957
3.31135
3.17738
3.04659
2.91812
2.79129
2.66554
2.54045
2.41573
2.29115
2.16658
2.04197
1.91729
1.79254
1.66775
1.54297
1.41823
1.29358
1.16906
1.04472
0.920569
0.796641
0.672977
0.54954
0.42654
0.30352
0.181905
0.0569621
5.39689
4.56467
4.29546
4.09526
3.91442
3.7491
3.59609
3.45155
3.3129
3.17858
3.04751
2.91881
2.79178
2.66587
2.54067
2.41586
2.29122
2.16663
2.042
1.9173
1.79256
1.66778
1.543
1.41828
1.29364
1.16913
1.0448
0.920664
0.796753
0.673094
0.549677
0.426657
0.303753
0.181836
0.0592601
5.27026
4.63445
4.30901
4.10318
3.92044
3.75286
3.5988
3.45385
3.31495
3.18044
3.04922
2.92039
2.79324
2.66722
2.5419
2.41699
2.29226
2.16758
2.04287
1.91812
1.79333
1.66851
1.5437
1.41894
1.29428
1.16976
1.0454
0.921244
0.797307
0.673624
0.550188
0.42714
0.304342
0.182252
0.0616881
5.33214
4.60693
4.3007
4.09908
3.91686
3.75064
3.59735
3.45275
3.31407
3.17971
3.04858
2.91982
2.79273
2.66675
2.54148
2.4166
2.2919
2.16724
2.04256
1.91781
1.79302
1.66821
1.5434
1.41864
1.29398
1.16945
1.04509
0.920934
0.797
0.673325
0.549887
0.426855
0.303948
0.182037
0.0592099
5.49987
4.53237
4.2841
4.08898
3.90898
3.74545
3.59354
3.44965
3.31149
3.17758
3.04686
2.91847
2.79172
2.66603
2.54098
2.41627
2.29168
2.16709
2.04244
1.91772
1.79292
1.66809
1.54327
1.41849
1.29381
1.16927
1.04491
0.920742
0.796815
0.673144
0.549703
0.42669
0.303515
0.182094
0.0550707
5.40193
4.56173
4.29542
4.0943
3.91403
3.74873
3.59569
3.45118
3.31257
3.17827
3.04721
2.91851
2.79149
2.66558
2.54037
2.41556
2.29093
2.16635
2.04173
1.91705
1.79232
1.66756
1.5428
1.4181
1.29348
1.16899
1.04467
0.920541
0.796636
0.672987
0.549578
0.426568
0.303741
0.181714
0.0604322
5.50547
4.52956
4.28374
4.08832
3.90866
3.74517
3.5933
3.44947
3.31136
3.17748
3.04679
2.91841
2.79166
2.66597
2.54093
2.41622
2.29164
2.16706
2.04242
1.9177
1.79291
1.66809
1.54327
1.4185
1.29382
1.16928
1.04491
0.920747
0.796803
0.673128
0.549674
0.426679
0.303551
0.182154
0.0554664
5.40911
4.55691
4.29627
4.09415
3.9141
3.74871
3.5956
3.45107
3.31245
3.17815
3.04708
2.91838
2.79134
2.66543
2.54022
2.41541
2.29078
2.1662
2.04158
1.91691
1.79219
1.66744
1.54269
1.41799
1.29338
1.1689
1.04458
0.92046
0.796564
0.672925
0.549533
0.42653
0.303756
0.18159
0.0614291
5.34276
4.61184
4.29852
4.09912
3.91634
3.75024
3.59717
3.45268
3.31408
3.17982
3.0488
2.92013
2.79312
2.66722
2.542
2.41715
2.29245
2.16778
2.04306
1.91828
1.79344
1.66857
1.54372
1.41892
1.29422
1.16966
1.04528
0.921104
0.797154
0.673467
0.550014
0.426979
0.303982
0.1822
0.0574416
5.3395
4.58808
4.3024
4.09844
3.91713
3.75093
3.59738
3.45257
3.31372
3.17924
3.04802
2.91919
2.79205
2.66606
2.54078
2.41591
2.29124
2.16661
2.04197
1.91727
1.79253
1.66775
1.54299
1.41827
1.29364
1.16915
1.04482
0.920693
0.796783
0.673127
0.549718
0.426699
0.303928
0.181788
0.0616221
5.55789
4.52204
4.28213
4.0869
3.90787
3.74457
3.59283
3.4491
3.31107
3.17725
3.04659
2.91824
2.79151
2.66584
2.54082
2.41613
2.29156
2.167
2.04237
1.91766
1.79289
1.66807
1.54326
1.41849
1.29382
1.16928
1.04491
0.920742
0.796798
0.673121
0.549668
0.426672
0.303571
0.182122
0.055822
5.31658
4.60488
4.30382
4.09972
3.91795
3.75146
3.59786
3.45308
3.31425
3.17976
3.04853
2.91968
2.79251
2.66649
2.54118
2.41629
2.29159
2.16694
2.04227
1.91755
1.79279
1.668
1.54321
1.41848
1.29384
1.16934
1.045
0.92086
0.796939
0.673273
0.549852
0.426824
0.304032
0.181942
0.0614083
5.21731
4.66647
4.31589
4.10704
3.92378
3.7548
3.60002
3.45477
3.31566
3.18101
3.04968
2.92078
2.7936
2.66756
2.54226
2.41736
2.29266
2.16802
2.04336
1.91864
1.79388
1.66909
1.54431
1.41958
1.29494
1.17043
1.04608
0.921928
0.797991
0.674301
0.550858
0.42779
0.304998
0.182886
0.0623115
5.38249
4.56657
4.29835
4.09561
3.91515
3.74949
3.59621
3.45157
3.31286
3.17849
3.04736
2.91862
2.79155
2.66561
2.54038
2.41555
2.29091
2.16631
2.04169
1.91702
1.79229
1.66753
1.54278
1.41807
1.29346
1.16897
1.04466
0.920532
0.796632
0.672987
0.549589
0.42658
0.303809
0.18165
0.0615061
5.33884
4.59519
4.30085
4.09824
3.91672
3.75065
3.59729
3.45263
3.31388
3.17946
3.04829
2.91949
2.79238
2.66639
2.54111
2.41624
2.29155
2.16692
2.04226
1.91754
1.79278
1.66799
1.5432
1.41847
1.29383
1.16932
1.04498
0.920837
0.796914
0.673248
0.549822
0.426795
0.303957
0.181941
0.0605309
5.55132
4.51667
4.28067
4.08623
3.90728
3.7442
3.5926
3.44895
3.31097
3.17721
3.0466
2.9183
2.7916
2.66596
2.54095
2.41626
2.29169
2.16712
2.04248
1.91776
1.79296
1.66813
1.54331
1.41853
1.29384
1.1693
1.04492
0.920751
0.796803
0.673125
0.549668
0.426678
0.30354
0.182177
0.0552527
5.45583
4.55133
4.29432
4.09281
3.91321
3.74811
3.59516
3.45074
3.3122
3.17795
3.04692
2.91825
2.79123
2.66533
2.54014
2.41533
2.29071
2.16613
2.04152
1.91686
1.79214
1.66738
1.54264
1.41794
1.29333
1.16884
1.04453
0.920413
0.796519
0.672884
0.549495
0.426493
0.303713
0.181561
0.0612961
5.31973
4.60227
4.30391
4.09993
3.91796
3.75146
3.59787
3.45308
3.31424
3.17975
3.04853
2.91969
2.79254
2.66652
2.54123
2.41634
2.29164
2.16699
2.04232
1.91761
1.79284
1.66804
1.54326
1.41852
1.29388
1.16937
1.04503
0.920891
0.796971
0.673302
0.54988
0.426848
0.304039
0.181957
0.0611501
5.44088
4.56845
4.28834
4.093
3.91138
3.7473
3.59528
3.45133
3.31311
3.17913
3.04832
2.91981
2.79291
2.66707
2.54187
2.41701
2.29228
2.16758
2.04283
1.91802
1.79316
1.66828
1.54341
1.41861
1.29391
1.16935
1.04497
0.920796
0.796848
0.673169
0.549708
0.426704
0.303541
0.182154
0.0547026
5.27622
4.63863
4.3074
4.10318
3.9201
3.75255
3.59862
3.45373
3.31487
3.1804
3.04921
2.92042
2.79331
2.66733
2.54205
2.41717
2.29247
2.16781
2.04312
1.91837
1.79357
1.66873
1.54391
1.41913
1.29445
1.1699
1.04552
0.921341
0.797388
0.673694
0.550244
0.427189
0.30432
0.182307
0.0600662
5.4045
4.56002
4.29584
4.0942
3.91404
3.74869
3.59562
3.4511
3.31249
3.17819
3.04713
2.91843
2.7914
2.66549
2.54029
2.41548
2.29085
2.16626
2.04165
1.91698
1.79225
1.66749
1.54274
1.41804
1.29342
1.16894
1.04462
0.920498
0.796597
0.672953
0.549552
0.426544
0.303744
0.181654
0.0608986
5.42322
4.55498
4.29288
4.09302
3.91292
3.74794
3.59512
3.45075
3.31223
3.17802
3.04702
2.91837
2.79139
2.66552
2.54034
2.41555
2.29093
2.16635
2.04174
1.91707
1.79233
1.66757
1.54281
1.4181
1.29348
1.16898
1.04466
0.920528
0.796619
0.672968
0.549553
0.426546
0.303672
0.181751
0.0595373
5.27931
4.62866
4.3083
4.10299
3.92007
3.75267
3.59871
3.45379
3.3149
3.18041
3.04919
2.92036
2.79321
2.66719
2.54187
2.41696
2.29223
2.16756
2.04286
1.91811
1.79331
1.66849
1.54368
1.41892
1.29426
1.16973
1.04537
0.921214
0.797281
0.673598
0.550165
0.427116
0.304297
0.182214
0.061245
5.44351
4.5449
4.29212
4.09266
3.91257
3.74766
3.59488
3.45052
3.31202
3.17783
3.04685
2.91823
2.79127
2.66542
2.54026
2.41548
2.29087
2.1663
2.0417
1.91702
1.79229
1.66753
1.54277
1.41806
1.29343
1.16894
1.04462
0.920486
0.796583
0.672934
0.549527
0.426518
0.303626
0.1817
0.0592538
5.19249
4.6773
4.31996
4.10859
3.9254
3.75582
3.60065
3.45523
3.31602
3.18128
3.0499
2.92096
2.79373
2.66767
2.54235
2.41744
2.29274
2.16809
2.04343
1.91872
1.79396
1.66917
1.54439
1.41967
1.29504
1.17054
1.04621
0.922072
0.798157
0.674491
0.551076
0.42803
0.3053
0.183203
0.0638523
5.46309
4.5424
4.2889
4.09073
3.91108
3.74666
3.59419
3.45004
3.31169
3.1776
3.04671
2.91815
2.79124
2.66543
2.54029
2.41554
2.29094
2.16638
2.04177
1.9171
1.79237
1.6676
1.54284
1.41812
1.29349
1.16899
1.04466
0.920523
0.796608
0.672952
0.549529
0.426525
0.303593
0.181796
0.0584319
5.56037
4.51244
4.28013
4.08593
3.90682
3.74398
3.59251
3.44892
3.31101
3.1773
3.04675
2.91851
2.79187
2.66628
2.54129
2.41661
2.29204
2.16745
2.04279
1.91805
1.79323
1.66838
1.54353
1.41873
1.29403
1.16947
1.04509
0.920908
0.796968
0.673284
0.549831
0.426815
0.303586
0.182284
0.054498
5.43196
4.54832
4.29405
4.09308
3.91324
3.7481
3.59515
3.45072
3.31217
3.17792
3.04689
2.91823
2.79122
2.66533
2.54014
2.41534
2.29072
2.16614
2.04153
1.91686
1.79214
1.66739
1.54264
1.41793
1.29332
1.16884
1.04452
0.920401
0.796505
0.672868
0.549477
0.426478
0.303676
0.181571
0.0608118
5.58011
4.50848
4.27901
4.08523
3.90636
3.74368
3.59232
3.4488
3.31092
3.17726
3.04674
2.91852
2.79191
2.66632
2.54134
2.41667
2.29209
2.1675
2.04283
1.91808
1.79326
1.6684
1.54354
1.41874
1.29404
1.16947
1.04509
0.920909
0.796968
0.673283
0.549828
0.426813
0.303577
0.1823
0.0543583
5.47957
4.54264
4.2854
4.08997
3.90963
3.74598
3.59403
3.45009
3.31189
3.17793
3.04717
2.91874
2.79193
2.6662
2.54112
2.41637
2.29175
2.16715
2.04248
1.91774
1.79294
1.6681
1.54327
1.4185
1.29382
1.16927
1.04491
0.920739
0.796797
0.673123
0.549666
0.426671
0.303514
0.182162
0.0550056
5.40746
4.57458
4.29225
4.09498
3.91336
3.74854
3.59602
3.45175
3.31328
3.17909
3.04811
2.91948
2.79249
2.66661
2.5414
2.41657
2.29189
2.16724
2.04255
1.91779
1.79298
1.66815
1.54332
1.41855
1.29387
1.16934
1.04498
0.920821
0.796897
0.673228
0.549796
0.426773
0.30371
0.182041
0.0565967
5.34311
4.61045
4.29852
4.09946
3.9165
3.75035
3.59724
3.45271
3.31409
3.17982
3.04878
2.92011
2.79311
2.66721
2.54199
2.41715
2.29246
2.16779
2.04307
1.91829
1.79346
1.66859
1.54373
1.41893
1.29423
1.16967
1.04529
0.921116
0.797175
0.67349
0.550047
0.427004
0.303998
0.182172
0.0574033
5.39357
4.56174
4.29748
4.09517
3.91475
3.74918
3.59596
3.45137
3.31269
3.17835
3.04725
2.91852
2.79147
2.66555
2.54033
2.41551
2.29087
2.16629
2.04167
1.917
1.79227
1.66751
1.54276
1.41806
1.29344
1.16896
1.04464
0.920515
0.796615
0.672972
0.549575
0.426567
0.303781
0.181647
0.0612163
5.41512
4.55415
4.29519
4.09413
3.91382
3.74852
3.59549
3.45099
3.31239
3.17811
3.04707
2.91839
2.79138
2.66549
2.5403
2.4155
2.29088
2.1663
2.04169
1.91702
1.7923
1.66754
1.54278
1.41808
1.29346
1.16897
1.04465
0.920524
0.796624
0.672978
0.549576
0.426567
0.303734
0.181688
0.0603701
5.40171
4.56616
4.29418
4.09492
3.9139
3.74877
3.59591
3.45146
3.31286
3.17859
3.04755
2.91887
2.79187
2.66598
2.54079
2.41598
2.29134
2.16674
2.0421
1.9174
1.79264
1.66785
1.54306
1.41833
1.29368
1.16917
1.04483
0.920682
0.796768
0.673106
0.549684
0.426662
0.303706
0.181877
0.0583478
5.41069
4.56061
4.29364
4.09371
3.91335
3.74827
3.5954
3.45099
3.31244
3.1782
3.04718
2.91852
2.79152
2.66564
2.54046
2.41566
2.29104
2.16645
2.04183
1.91715
1.79241
1.66765
1.54288
1.41816
1.29354
1.16904
1.04471
0.920579
0.796667
0.673013
0.549594
0.426584
0.303698
0.181798
0.0593732
5.16083
4.68984
4.32606
4.1108
3.92755
3.75723
3.60151
3.45587
3.31651
3.18166
3.0502
2.92119
2.79392
2.66783
2.54247
2.41755
2.29283
2.16818
2.04352
1.91881
1.79406
1.66928
1.54451
1.41979
1.29516
1.17067
1.04634
0.922215
0.798308
0.67465
0.551254
0.428223
0.305568
0.18354
0.0664953
5.5717
4.50733
4.27919
4.08527
3.90627
3.74364
3.59229
3.44878
3.31093
3.17728
3.04678
2.91858
2.79198
2.6664
2.54142
2.41675
2.29216
2.16756
2.04288
1.91812
1.79329
1.66842
1.54356
1.41876
1.29405
1.16948
1.0451
0.920917
0.796975
0.67329
0.549834
0.426824
0.303565
0.182353
0.0540444
5.57424
4.50608
4.2789
4.08512
3.9062
3.7436
3.59228
3.44879
3.31095
3.17731
3.04682
2.91862
2.79202
2.66645
2.54147
2.41679
2.29221
2.1676
2.04292
1.91816
1.79332
1.66845
1.54359
1.41878
1.29408
1.16951
1.04511
0.920923
0.796962
0.673283
0.549821
0.426857
0.303628
0.18245
0.0540785
5.38655
4.57673
4.29484
4.0953
3.91422
3.74901
3.59616
3.45174
3.31316
3.17887
3.04781
2.91912
2.79209
2.66617
2.54096
2.41613
2.29147
2.16686
2.04221
1.91749
1.79273
1.66793
1.54314
1.4184
1.29375
1.16923
1.04489
0.92074
0.796815
0.673149
0.549716
0.426699
0.303756
0.181942
0.0585096
5.46023
4.54356
4.28975
4.09104
3.91149
3.74692
3.59436
3.45016
3.31177
3.17764
3.04672
2.91813
2.79119
2.66536
2.54021
2.41544
2.29083
2.16627
2.04166
1.91699
1.79226
1.6675
1.54275
1.41803
1.29341
1.16892
1.0446
0.920468
0.796559
0.672908
0.549493
0.426491
0.3036
0.181727
0.0591021
5.2256
4.65747
4.31587
4.10674
3.92332
3.75462
3.59993
3.45468
3.31558
3.18093
3.04961
2.92071
2.79352
2.66749
2.54218
2.41729
2.29259
2.16795
2.04327
1.91855
1.79376
1.66895
1.54414
1.41937
1.29471
1.17017
1.04581
0.921643
0.797702
0.674012
0.550576
0.427517
0.304754
0.182616
0.0629145
5.37632
4.57798
4.29659
4.09593
3.91494
3.74948
3.59642
3.45189
3.31323
3.17889
3.04778
2.91905
2.79199
2.66606
2.54083
2.41599
2.29134
2.16673
2.04208
1.91738
1.79263
1.66784
1.54307
1.41834
1.2937
1.16919
1.04485
0.920713
0.796794
0.673132
0.549707
0.426688
0.3038
0.181886
0.0594774
5.36799
4.57291
4.29967
4.0966
3.91584
3.75
3.59662
3.45192
3.31315
3.17874
3.04758
2.91881
2.79171
2.66576
2.54051
2.41567
2.29102
2.16642
2.04179
1.91711
1.79237
1.66761
1.54285
1.41814
1.29352
1.16904
1.04472
0.92059
0.796687
0.673038
0.549636
0.426623
0.303849
0.1817
0.0614946
5.30145
4.62438
4.30433
4.10185
3.91877
3.75177
3.59814
3.45337
3.31458
3.18018
3.04905
2.9203
2.79323
2.66727
2.54201
2.41713
2.29243
2.16776
2.04305
1.91829
1.79348
1.66864
1.54381
1.41903
1.29434
1.16979
1.04542
0.921248
0.797306
0.673618
0.550176
0.427124
0.304216
0.182238
0.0593474
5.45946
4.54576
4.28836
4.09111
3.91097
3.74671
3.59436
3.45024
3.31191
3.17785
3.04699
2.91847
2.79159
2.66581
2.5407
2.41595
2.29135
2.16677
2.04215
1.91745
1.7927
1.6679
1.54311
1.41837
1.29372
1.1692
1.04485
0.920697
0.796767
0.673099
0.549659
0.426652
0.303624
0.182004
0.0570328
5.45123
4.54724
4.29188
4.09188
3.91236
3.74753
3.59477
3.45045
3.31198
3.17779
3.04681
2.91818
2.7912
2.66533
2.54015
2.41536
2.29075
2.16617
2.04157
1.9169
1.79218
1.66742
1.54267
1.41797
1.29335
1.16887
1.04455
0.920431
0.796531
0.672888
0.549487
0.426486
0.30366
0.181641
0.0602878
5.24474
4.65445
4.31169
4.10533
3.92206
3.75373
3.59936
3.45428
3.31528
3.18072
3.04946
2.92061
2.79346
2.66746
2.54217
2.41729
2.29259
2.16795
2.04329
1.91857
1.7938
1.669
1.5442
1.41945
1.29479
1.17026
1.04589
0.921709
0.797752
0.674048
0.550592
0.427521
0.304681
0.182605
0.0609466
5.25347
4.64273
4.31156
4.10441
3.9215
3.75352
3.59922
3.45416
3.31519
3.18063
3.04936
2.9205
2.79332
2.66728
2.54194
2.41701
2.29227
2.16758
2.04287
1.91811
1.79331
1.66849
1.54368
1.41893
1.29427
1.16974
1.04539
0.921237
0.797305
0.673625
0.550196
0.427152
0.304384
0.182272
0.0622707
5.2937
4.61961
4.30633
4.10141
3.9191
3.75209
3.59828
3.45343
3.31457
3.18007
3.04883
2.91998
2.79281
2.66677
2.54145
2.41654
2.29182
2.16716
2.04248
1.91775
1.79297
1.66816
1.54337
1.41863
1.29398
1.16946
1.04512
0.920972
0.797046
0.673374
0.549948
0.426912
0.304119
0.182034
0.0615024
5.41118
4.55829
4.29423
4.09355
3.91342
3.74827
3.59533
3.4509
3.31233
3.17808
3.04705
2.91839
2.79138
2.66549
2.5403
2.4155
2.29087
2.16629
2.04167
1.917
1.79227
1.66751
1.54275
1.41805
1.29343
1.16894
1.04462
0.920493
0.796588
0.67294
0.549532
0.426525
0.303686
0.181692
0.0601399