/*--------------------------------*- C++ -*----------------------------------*\
| =========                 |                                                 |
| \\      /  F ield         | OpenFOAM: The Open Source CFD Toolbox           |
|  \\    /   O peration     | Version:  2.4.x                                 |
|   \\  /    A nd           | Web:      www.OpenFOAM.org                      |
|    \\/     M anipulation  |                                                 |
\*---------------------------------------------------------------------------*/
FoamFile
{
    version     2.0;
    format      ascii;
    class       surfaceScalarField;
    location    "9970/coolant";
    object      phi;
}
// * * * * * * * * * * * * * * * * * * * * * * * * * * * * * * * * * * * * * //

dimensions      [1 0 -1 0 0 0 0];

internalField   nonuniform List<scalar> 
315644
(
6.31237e-05
1.01351e-05
-1.73788e-05
2.12953e-05
-1.74779e-05
6.47647e-05
4.87589e-06
-7.93482e-06
9.80222e-06
-8.38423e-06
6.59692e-05
3.73338e-06
-6.01263e-06
7.45892e-06
-6.38422e-06
6.68888e-05
3.15591e-06
-4.86536e-06
6.09458e-06
-5.30465e-06
6.7636e-05
2.64317e-06
-3.96844e-06
4.98939e-06
-4.4114e-06
6.82551e-05
2.34153e-06
-3.43187e-06
4.34485e-06
-3.87362e-06
6.8761e-05
2.148e-06
-3.06587e-06
3.92398e-06
-3.51195e-06
6.91567e-05
1.99394e-06
-2.76537e-06
3.59218e-06
-3.21651e-06
6.94427e-05
1.86227e-06
-2.50145e-06
3.3115e-06
-2.95833e-06
6.96221e-05
1.74445e-06
-2.26086e-06
3.06107e-06
-2.72397e-06
6.97037e-05
1.63397e-06
-2.03619e-06
2.82575e-06
-2.50519e-06
6.97035e-05
1.52775e-06
-1.82553e-06
2.59767e-06
-2.29963e-06
6.96419e-05
1.4253e-06
-1.62971e-06
2.37418e-06
-2.10817e-06
6.9541e-05
1.32751e-06
-1.45009e-06
2.15595e-06
-1.93254e-06
6.94213e-05
1.23568e-06
-1.2877e-06
1.94566e-06
-1.77397e-06
6.92993e-05
1.15082e-06
-1.14266e-06
1.74635e-06
-1.63251e-06
6.9187e-05
1.0734e-06
-1.0143e-06
1.56059e-06
-1.50736e-06
6.90922e-05
1.00336e-06
-9.01361e-07
1.38992e-06
-1.39713e-06
6.90195e-05
9.40193e-07
-8.02262e-07
1.23476e-06
-1.3e-06
6.89711e-05
8.83255e-07
-7.15354e-07
1.09471e-06
-1.21415e-06
6.89473e-05
8.31859e-07
-6.39058e-07
9.68896e-07
-1.13789e-06
6.89474e-05
7.85347e-07
-5.71906e-07
8.56101e-07
-1.06968e-06
6.89701e-05
7.43082e-07
-5.1255e-07
7.54963e-07
-1.00816e-06
6.90134e-05
7.04469e-07
-4.59779e-07
6.6409e-07
-9.52119e-07
6.90754e-05
6.6896e-07
-4.1256e-07
5.82207e-07
-9.00557e-07
6.91538e-05
6.36063e-07
-3.69948e-07
5.08087e-07
-8.52635e-07
6.92467e-05
6.0536e-07
-3.31116e-07
4.4059e-07
-8.07694e-07
6.9352e-05
5.76265e-07
-2.95257e-07
3.78582e-07
-7.64941e-07
6.94681e-05
5.48323e-07
-2.61551e-07
3.20843e-07
-7.23697e-07
6.95931e-05
5.20798e-07
-2.29813e-07
2.67207e-07
-6.83264e-07
6.97252e-05
4.92515e-07
-1.98875e-07
2.16252e-07
-6.41936e-07
6.98623e-05
4.64208e-07
-1.70603e-07
1.70609e-07
-6.01385e-07
6.99998e-05
4.28353e-07
-1.38426e-07
1.22723e-07
-5.50097e-07
7.01439e-05
3.94305e-07
-1.07007e-07
7.39506e-08
-5.0538e-07
1.86621e-07
6.00666e-08
-1.23015e-07
-2.06168e-07
4.13527e-05
9.661e-06
-9.79709e-06
-2.17591e-05
2.01976e-05
4.18118e-05
3.01277e-06
-3.18638e-06
-9.43016e-06
9.14473e-06
4.18383e-05
2.15019e-06
-2.1994e-06
-6.74042e-06
6.76306e-06
4.15599e-05
1.39721e-06
-1.39218e-06
-4.98202e-06
5.25545e-06
4.1119e-05
9.43702e-07
-9.05213e-07
-3.71951e-06
4.12193e-06
4.05903e-05
6.6869e-07
-6.08448e-07
-2.892e-06
3.36037e-06
4.00395e-05
4.6025e-07
-3.95993e-07
-2.31404e-06
2.80061e-06
3.95142e-05
2.88364e-07
-2.3334e-07
-1.88536e-06
2.35567e-06
3.90419e-05
1.45316e-07
-1.07198e-07
-1.56669e-06
2.00083e-06
3.86348e-05
2.51844e-08
-7.22227e-09
-1.33141e-06
1.72057e-06
3.8295e-05
-7.69117e-08
7.43768e-08
-1.15852e-06
1.50088e-06
3.80191e-05
-1.6446e-07
1.42693e-07
-1.03271e-06
1.33039e-06
3.7801e-05
-2.40635e-07
2.01605e-07
-9.42477e-07
1.19956e-06
3.76341e-05
-3.0785e-07
2.5342e-07
-8.78933e-07
1.10031e-06
3.75116e-05
-3.67237e-07
2.991e-07
-8.34944e-07
1.02558e-06
3.74274e-05
-4.19311e-07
3.39137e-07
-8.04753e-07
9.69121e-07
3.7376e-05
-4.64584e-07
3.73893e-07
-7.83959e-07
9.26052e-07
3.73524e-05
-5.03385e-07
4.03666e-07
-7.69066e-07
8.92357e-07
3.73523e-05
-5.36006e-07
4.28649e-07
-7.57455e-07
8.64923e-07
3.73718e-05
-5.62796e-07
4.49069e-07
-7.47229e-07
8.41407e-07
3.74078e-05
-5.84159e-07
4.65203e-07
-7.37042e-07
8.20085e-07
3.74572e-05
-6.0053e-07
4.77379e-07
-7.25981e-07
7.99717e-07
3.75176e-05
-6.12304e-07
4.85936e-07
-7.13493e-07
7.79447e-07
3.75868e-05
-6.19845e-07
4.91214e-07
-6.99332e-07
7.58753e-07
3.76629e-05
-6.2352e-07
4.93549e-07
-6.83475e-07
7.37376e-07
3.77441e-05
-6.23744e-07
4.93295e-07
-6.6611e-07
7.15287e-07
3.78293e-05
-6.20935e-07
4.90772e-07
-6.47642e-07
6.92694e-07
3.79172e-05
-6.15393e-07
4.86123e-07
-6.28181e-07
6.69543e-07
3.80071e-05
-6.07544e-07
4.79651e-07
-6.07821e-07
6.45818e-07
3.80982e-05
-5.97236e-07
4.71191e-07
-5.86144e-07
6.21043e-07
3.81896e-05
-5.84369e-07
4.60792e-07
-5.61413e-07
5.93516e-07
3.82805e-05
-5.69299e-07
4.49064e-07
-5.35904e-07
5.65323e-07
3.83679e-05
-5.44463e-07
4.29316e-07
-4.94777e-07
5.22509e-07
3.84562e-05
-5.36274e-07
4.26152e-07
-4.78756e-07
5.00548e-07
-3.33154e-07
2.58171e-07
-1.65872e-07
1.93781e-07
8.40709e-06
1.04825e-05
-3.67634e-06
-6.90673e-06
3.43268e-06
6.96712e-06
3.1339e-06
-9.8341e-07
-1.63527e-06
9.24748e-07
6.1168e-06
1.57489e-06
-3.19615e-07
-7.08439e-07
3.03487e-07
5.67758e-06
8.31459e-07
-2.9688e-08
-3.45191e-07
-1.73613e-08
5.43776e-06
5.00201e-07
2.72301e-08
-2.00378e-07
-8.72293e-08
5.29761e-06
3.58856e-07
7.68105e-08
-1.51576e-07
-1.43947e-07
5.21343e-06
2.93675e-07
1.205e-07
-1.34496e-07
-1.95502e-07
5.16278e-06
2.62329e-07
1.54481e-07
-1.2921e-07
-2.36945e-07
5.13285e-06
2.49884e-07
1.83606e-07
-1.30712e-07
-2.72848e-07
5.11597e-06
2.49975e-07
2.11365e-07
-1.37153e-07
-3.07313e-07
5.10713e-06
2.59067e-07
2.39393e-07
-1.47391e-07
-3.42226e-07
5.10272e-06
2.7447e-07
2.67466e-07
-1.60247e-07
-3.77277e-07
5.10003e-06
2.93434e-07
2.94236e-07
-1.7423e-07
-4.1075e-07
5.09698e-06
3.13108e-07
3.17777e-07
-1.87655e-07
-4.40181e-07
5.09208e-06
3.31031e-07
3.36347e-07
-1.99119e-07
-4.63361e-07
5.08438e-06
3.4551e-07
3.48992e-07
-2.07747e-07
-4.79051e-07
5.07338e-06
3.55646e-07
3.55557e-07
-2.13189e-07
-4.87019e-07
5.059e-06
3.61206e-07
3.56493e-07
-2.15503e-07
-4.87813e-07
5.04142e-06
3.62461e-07
3.52676e-07
-2.15041e-07
-4.82519e-07
5.02104e-06
3.59974e-07
3.45138e-07
-2.12291e-07
-4.72437e-07
4.99833e-06
3.54441e-07
3.34907e-07
-2.07777e-07
-4.58864e-07
4.97382e-06
3.46586e-07
3.22922e-07
-2.02006e-07
-4.42989e-07
4.94801e-06
3.37062e-07
3.09952e-07
-1.95406e-07
-4.25798e-07
4.92136e-06
3.26398e-07
2.96569e-07
-1.88301e-07
-4.08023e-07
4.8943e-06
3.15024e-07
2.83209e-07
-1.80945e-07
-3.90223e-07
4.86717e-06
3.03252e-07
2.70147e-07
-1.73506e-07
-3.72764e-07
4.84026e-06
2.91399e-07
2.57588e-07
-1.6616e-07
-3.55911e-07
4.81378e-06
2.79787e-07
2.45745e-07
-1.59104e-07
-3.39956e-07
4.78787e-06
2.68653e-07
2.3456e-07
-1.52453e-07
-3.2486e-07
4.76253e-06
2.58668e-07
2.24446e-07
-1.46647e-07
-3.11132e-07
4.73777e-06
2.48763e-07
2.14247e-07
-1.40869e-07
-2.9743e-07
4.71343e-06
2.41443e-07
2.06385e-07
-1.36872e-07
-2.86571e-07
4.69055e-06
2.22626e-07
1.87385e-07
-1.2462e-07
-2.62509e-07
4.66605e-06
2.30976e-07
1.95712e-07
-1.31683e-07
-2.7048e-07
7.49461e-08
2.24013e-09
-1.98159e-08
-4.02283e-08
1.66052e-05
1.67385e-05
8.11954e-06
-1.26971e-05
-1.09851e-05
1.57608e-05
6.06222e-06
2.78039e-06
-4.29543e-06
-3.70277e-06
1.48869e-05
3.67465e-06
1.64195e-06
-2.3872e-06
-2.05549e-06
1.41823e-05
2.25288e-06
9.06127e-07
-1.36437e-06
-1.09008e-06
1.36625e-05
1.41512e-06
5.12767e-07
-8.08445e-07
-5.9964e-07
1.32839e-05
9.48633e-07
3.02778e-07
-5.20921e-07
-3.51913e-07
1.30091e-05
6.71135e-07
1.77202e-07
-3.6095e-07
-2.12577e-07
1.28104e-05
4.91791e-07
9.60748e-08
-2.62448e-07
-1.26681e-07
1.26672e-05
3.73414e-07
4.20042e-08
-2.00321e-07
-7.18905e-08
1.2565e-05
2.94661e-07
4.37761e-09
-1.6119e-07
-3.57005e-08
1.24938e-05
2.41871e-07
-2.3503e-08
-1.36748e-07
-1.04058e-08
1.24463e-05
2.06649e-07
-4.55353e-08
-1.22017e-07
8.41256e-09
1.24175e-05
1.83516e-07
-6.38767e-08
-1.13898e-07
2.30848e-08
1.24037e-05
1.68709e-07
-7.97263e-08
-1.10202e-07
3.50356e-08
1.2402e-05
1.59567e-07
-9.36508e-08
-1.09346e-07
4.50465e-08
1.24104e-05
1.54141e-07
-1.05845e-07
-1.10152e-07
5.35018e-08
1.24269e-05
1.51021e-07
-1.1642e-07
-1.11773e-07
6.06708e-08
1.24501e-05
1.49222e-07
-1.25457e-07
-1.13642e-07
6.6722e-08
1.24786e-05
1.48032e-07
-1.33002e-07
-1.15362e-07
7.17566e-08
1.25116e-05
1.46957e-07
-1.39106e-07
-1.16666e-07
7.58455e-08
1.25481e-05
1.45675e-07
-1.43828e-07
-1.17398e-07
7.90465e-08
1.25874e-05
1.43988e-07
-1.47268e-07
-1.17482e-07
8.14396e-08
1.2629e-05
1.41789e-07
-1.49568e-07
-1.16899e-07
8.31395e-08
1.26722e-05
1.39048e-07
-1.50882e-07
-1.15677e-07
8.42646e-08
1.27167e-05
1.35779e-07
-1.51347e-07
-1.13862e-07
8.49108e-08
1.27622e-05
1.32059e-07
-1.51073e-07
-1.11538e-07
8.51319e-08
1.28082e-05
1.28089e-07
-1.50109e-07
-1.08891e-07
8.49061e-08
1.28545e-05
1.23866e-07
-1.48374e-07
-1.0593e-07
8.41338e-08
1.29009e-05
1.1943e-07
-1.45976e-07
-1.02754e-07
8.29023e-08
1.29472e-05
1.14434e-07
-1.42917e-07
-9.91249e-08
8.12924e-08
1.29932e-05
1.07868e-07
-1.39562e-07
-9.42867e-08
7.98877e-08
1.30391e-05
1.00529e-07
-1.36485e-07
-8.89572e-08
7.90291e-08
1.30836e-05
8.62973e-08
-1.30904e-07
-7.75496e-08
7.76867e-08
1.31306e-05
8.13019e-08
-1.33941e-07
-7.60096e-08
8.1703e-08
-5.14482e-08
-7.37506e-08
3.84542e-08
6.08837e-08
8.29192e-06
-3.67002e-06
2.54192e-06
-7.41529e-06
1.21453e-05
6.82184e-06
-8.38036e-07
4.99318e-07
-1.81246e-06
3.62125e-06
5.97978e-06
-3.57818e-07
2.29717e-07
-6.8772e-07
1.65788e-06
5.54464e-06
-9.68777e-08
1.59195e-08
-3.16733e-07
8.32824e-07
5.30767e-06
-5.903e-08
-1.61008e-09
-1.43943e-07
4.41557e-07
5.16883e-06
-2.46624e-08
-2.70794e-08
-8.78997e-08
2.78478e-07
5.08433e-06
1.22739e-08
-6.32734e-08
-7.35973e-08
2.09097e-07
5.03268e-06
4.25336e-08
-9.62912e-08
-7.21094e-08
1.77516e-07
5.00215e-06
6.89401e-08
-1.27249e-07
-7.79372e-08
1.66782e-07
4.98575e-06
9.3681e-08
-1.57574e-07
-8.83382e-08
1.68631e-07
4.97925e-06
1.17502e-07
-1.87758e-07
-1.01527e-07
1.78286e-07
4.97997e-06
1.40866e-07
-2.18091e-07
-1.1653e-07
1.93037e-07
4.98611e-06
1.63681e-07
-2.48255e-07
-1.32443e-07
2.10875e-07
4.99638e-06
1.85464e-07
-2.77446e-07
-1.48348e-07
2.30058e-07
5.00978e-06
2.05536e-07
-3.04608e-07
-1.63346e-07
2.49021e-07
5.02545e-06
2.23248e-07
-3.28717e-07
-1.7669e-07
2.66482e-07
5.04267e-06
2.38126e-07
-3.4899e-07
-1.87861e-07
2.81509e-07
5.06077e-06
2.49936e-07
-3.65001e-07
-1.96594e-07
2.93556e-07
5.0792e-06
2.58615e-07
-3.76598e-07
-2.02816e-07
3.02373e-07
5.09748e-06
2.64261e-07
-3.83889e-07
-2.0661e-07
3.07955e-07
5.11525e-06
2.67101e-07
-3.8718e-07
-2.08165e-07
3.10475e-07
5.13223e-06
2.67403e-07
-3.86867e-07
-2.07735e-07
3.10224e-07
5.14821e-06
2.65492e-07
-3.83432e-07
-2.05613e-07
3.07567e-07
5.16309e-06
2.61713e-07
-3.77389e-07
-2.02098e-07
3.02892e-07
5.17683e-06
2.56434e-07
-3.69268e-07
-1.97487e-07
2.96586e-07
5.18944e-06
2.49984e-07
-3.59555e-07
-1.92041e-07
2.89002e-07
5.20098e-06
2.42668e-07
-3.48693e-07
-1.86021e-07
2.80521e-07
5.21151e-06
2.34719e-07
-3.37041e-07
-1.79629e-07
2.71416e-07
5.2211e-06
2.26128e-07
-3.24656e-07
-1.72921e-07
2.61846e-07
5.2298e-06
2.17295e-07
-3.12048e-07
-1.66281e-07
2.52323e-07
5.23767e-06
2.07493e-07
-2.98318e-07
-1.58969e-07
2.41882e-07
5.24479e-06
1.9938e-07
-2.86594e-07
-1.5325e-07
2.3337e-07
5.25122e-06
1.80887e-07
-2.62171e-07
-1.38292e-07
2.13155e-07
5.25637e-06
1.90262e-07
-2.70567e-07
-1.4761e-07
2.22785e-07
-3.91291e-08
5.24605e-09
3.24768e-08
3.39182e-10
4.58921e-05
-1.23272e-05
-2.0843e-05
1.24874e-05
1.87418e-05
4.64432e-05
-4.93426e-06
-8.66872e-06
4.97211e-06
8.07971e-06
4.65482e-05
-3.56617e-06
-6.09376e-06
3.66569e-06
5.88922e-06
4.63166e-05
-2.63498e-06
-4.34502e-06
2.75976e-06
4.4519e-06
4.58955e-05
-1.96494e-06
-3.13658e-06
2.10566e-06
3.41698e-06
4.53581e-05
-1.52445e-06
-2.35866e-06
1.68084e-06
2.7396e-06
4.47749e-05
-1.20659e-06
-1.81428e-06
1.36651e-06
2.23764e-06
4.42018e-05
-9.60501e-07
-1.40715e-06
1.1108e-06
1.82988e-06
4.3675e-05
-7.70438e-07
-1.10161e-06
9.02233e-07
1.49663e-06
4.32128e-05
-6.25114e-07
-8.73188e-07
7.33808e-07
1.2267e-06
4.28213e-05
-5.14368e-07
-7.01924e-07
5.98356e-07
1.00941e-06
4.24993e-05
-4.30214e-07
-5.73023e-07
4.89708e-07
8.35526e-07
4.22418e-05
-3.66268e-07
-4.75633e-07
4.02521e-07
6.96937e-07
4.20421e-05
-3.17598e-07
-4.01536e-07
3.32377e-07
5.8646e-07
4.18933e-05
-2.80406e-07
-3.44678e-07
2.7572e-07
4.98132e-07
4.17888e-05
-2.51681e-07
-3.00619e-07
2.29619e-07
4.27161e-07
4.17225e-05
-2.29179e-07
-2.65986e-07
1.91808e-07
3.69642e-07
4.1689e-05
-2.11232e-07
-2.3827e-07
1.60563e-07
3.22484e-07
4.16834e-05
-1.96543e-07
-2.15646e-07
1.34445e-07
2.83347e-07
4.17015e-05
-1.84121e-07
-1.96814e-07
1.123e-07
2.50508e-07
4.17397e-05
-1.73233e-07
-1.8087e-07
9.32605e-08
2.22678e-07
4.17947e-05
-1.6336e-07
-1.67155e-07
7.6654e-08
1.98853e-07
4.18638e-05
-1.54156e-07
-1.55126e-07
6.19859e-08
1.78222e-07
4.19445e-05
-1.45414e-07
-1.44354e-07
4.89154e-08
1.60131e-07
4.20347e-05
-1.37033e-07
-1.34498e-07
3.72192e-08
1.44044e-07
4.21328e-05
-1.28991e-07
-1.25255e-07
2.6744e-08
1.29472e-07
4.22371e-05
-1.21353e-07
-1.16446e-07
1.74033e-08
1.16046e-07
4.23466e-05
-1.13916e-07
-1.07914e-07
8.90094e-09
1.03434e-07
4.24603e-05
-1.06585e-07
-9.93604e-08
1.02741e-09
9.1211e-08
4.25772e-05
-9.8818e-08
-9.08224e-08
-6.68407e-09
7.94121e-08
4.2696e-05
-8.98979e-08
-8.1087e-08
-1.47619e-08
6.69827e-08
4.28154e-05
-8.03715e-08
-7.17432e-08
-2.27627e-08
5.54911e-08
4.29318e-05
-6.61076e-08
-5.6667e-08
-3.31111e-08
3.94865e-08
4.30518e-05
-5.44481e-08
-4.55471e-08
-4.55125e-08
2.54766e-08
4.5649e-08
9.89585e-08
-1.04883e-07
-1.05572e-07
0.000313226
-1.94233e-05
-9.82666e-06
1.39773e-05
0.000321411
-1.18251e-05
-5.09291e-06
8.73293e-06
0.000327622
-8.77552e-06
-3.75096e-06
6.31549e-06
0.00033309
-7.76375e-06
-3.25831e-06
5.55472e-06
0.000337711
-6.67472e-06
-2.7062e-06
4.75966e-06
0.000341836
-6.00014e-06
-2.38166e-06
4.25668e-06
0.000345672
-5.60662e-06
-2.1918e-06
3.96264e-06
0.000349295
-5.32315e-06
-2.05149e-06
3.75105e-06
0.000352758
-5.11107e-06
-1.94329e-06
3.59211e-06
0.000356097
-4.95361e-06
-1.8593e-06
3.47319e-06
0.000359342
-4.83553e-06
-1.79213e-06
3.38285e-06
0.000362512
-4.74692e-06
-1.737e-06
3.31373e-06
0.000365623
-4.681e-06
-1.69087e-06
3.2609e-06
0.000368687
-4.63209e-06
-1.65149e-06
3.22038e-06
0.00037171
-4.59518e-06
-1.61713e-06
3.18883e-06
0.000374699
-4.56583e-06
-1.5865e-06
3.16342e-06
0.000377656
-4.54029e-06
-1.55855e-06
3.14187e-06
0.000380581
-4.51559e-06
-1.53235e-06
3.12237e-06
0.000383474
-4.48947e-06
-1.50689e-06
3.10355e-06
0.000386331
-4.46046e-06
-1.48103e-06
3.08446e-06
0.000389148
-4.42772e-06
-1.45343e-06
3.06446e-06
0.000391918
-4.39089e-06
-1.42262e-06
3.04326e-06
0.000394634
-4.34994e-06
-1.38703e-06
3.02075e-06
0.000397287
-4.30484e-06
-1.34522e-06
2.99702e-06
0.000399867
-4.25547e-06
-1.29601e-06
2.97221e-06
0.00040236
-4.2013e-06
-1.23856e-06
2.9464e-06
0.000404755
-4.1416e-06
-1.17248e-06
2.91958e-06
0.000407036
-4.07528e-06
-1.09766e-06
2.89151e-06
0.00040919
-4.00077e-06
-1.01445e-06
2.86143e-06
0.000411202
-3.91725e-06
-9.23776e-07
2.82891e-06
0.000413058
-3.82086e-06
-8.26319e-07
2.79113e-06
0.000414748
-3.71313e-06
-7.25329e-07
2.74818e-06
0.000416254
-3.5694e-06
-6.17588e-07
2.68151e-06
0.000417567
-3.39797e-06
-4.94404e-07
2.57955e-06
-2.31321e-06
-1.58042e-07
1.67786e-06
3.71627e-05
2.07367e-05
-2.09607e-05
-1.40539e-05
1.31763e-05
3.7222e-05
9.48952e-06
-9.23968e-06
-4.42886e-06
4.11969e-06
3.68544e-05
6.92935e-06
-6.43961e-06
-3.00845e-06
2.88636e-06
3.625e-05
5.22307e-06
-4.60297e-06
-1.84375e-06
1.82809e-06
3.55778e-05
3.96951e-06
-3.32646e-06
-1.17651e-06
1.20561e-06
3.4916e-05
3.13346e-06
-2.51689e-06
-7.78022e-07
8.23222e-07
3.43138e-05
2.53581e-06
-1.97681e-06
-4.95153e-07
5.38392e-07
3.37947e-05
2.08539e-06
-1.59853e-06
-2.79823e-07
3.12082e-07
3.33626e-05
1.74747e-06
-1.33326e-06
-1.12593e-07
1.30429e-07
3.30117e-05
1.49698e-06
-1.14862e-06
1.99566e-08
-1.73597e-08
3.27322e-05
1.31347e-06
-1.02178e-06
1.27692e-07
-1.39938e-07
3.25141e-05
1.18134e-06
-9.37129e-07
2.17697e-07
-2.43845e-07
3.23485e-05
1.08855e-06
-8.83516e-07
2.94763e-07
-3.34134e-07
3.22274e-05
1.02481e-06
-8.52038e-07
3.62192e-07
-4.13898e-07
3.21441e-05
9.8212e-07
-8.35753e-07
4.21684e-07
-4.84775e-07
3.20926e-05
9.54329e-07
-8.29281e-07
4.73913e-07
-5.47412e-07
3.20674e-05
9.36335e-07
-8.28359e-07
5.1919e-07
-6.01994e-07
3.2064e-05
9.24107e-07
-8.29751e-07
5.57705e-07
-6.48618e-07
3.20782e-05
9.14593e-07
-8.31061e-07
5.8964e-07
-6.87398e-07
3.21066e-05
9.05666e-07
-8.30688e-07
6.15236e-07
-7.18568e-07
3.2146e-05
8.95878e-07
-8.27659e-07
6.34875e-07
-7.42504e-07
3.21938e-05
8.84271e-07
-8.21435e-07
6.48952e-07
-7.59582e-07
3.22476e-05
8.70357e-07
-8.11877e-07
6.57829e-07
-7.70197e-07
3.23057e-05
8.53986e-07
-7.9911e-07
6.61926e-07
-7.74836e-07
3.23663e-05
8.35239e-07
-7.8343e-07
6.61699e-07
-7.74073e-07
3.24281e-05
8.14359e-07
-7.65241e-07
6.576e-07
-7.68521e-07
3.24901e-05
7.91852e-07
-7.45151e-07
6.50089e-07
-7.58823e-07
3.25517e-05
7.68145e-07
-7.23672e-07
6.39615e-07
-7.45654e-07
3.26123e-05
7.43548e-07
-7.01174e-07
6.26386e-07
-7.29367e-07
3.26716e-05
7.18587e-07
-6.78278e-07
6.10967e-07
-7.10626e-07
3.27294e-05
6.91328e-07
-6.53168e-07
5.93412e-07
-6.89473e-07
3.27857e-05
6.64847e-07
-6.29141e-07
5.7592e-07
-6.67883e-07
3.28391e-05
6.21444e-07
-5.87671e-07
5.48688e-07
-6.35815e-07
3.28925e-05
6.07939e-07
-5.80469e-07
5.45397e-07
-6.26297e-07
2.88239e-07
-2.57402e-07
2.82132e-07
-3.39964e-07
0.000229458
-2.7718e-05
1.6472e-05
-1.30011e-05
1.22376e-05
0.000235203
-1.48464e-05
7.68446e-06
-5.69839e-06
7.11525e-06
0.000239826
-1.12253e-05
5.85098e-06
-4.44473e-06
5.19575e-06
0.000243766
-9.64206e-06
5.01328e-06
-3.79078e-06
4.47941e-06
0.000247089
-8.13352e-06
4.11137e-06
-3.10495e-06
3.80495e-06
0.000250058
-7.23871e-06
3.59902e-06
-2.72213e-06
3.39263e-06
0.000252807
-6.69464e-06
3.29483e-06
-2.49306e-06
3.14365e-06
0.000255389
-6.29194e-06
3.06764e-06
-2.31965e-06
2.96196e-06
0.000257837
-5.98e-06
2.89115e-06
-2.18264e-06
2.82367e-06
0.000260172
-5.73363e-06
2.75259e-06
-2.07222e-06
2.71761e-06
0.000262408
-5.531e-06
2.64e-06
-1.97899e-06
2.63448e-06
0.000264548
-5.35697e-06
2.5454e-06
-1.89652e-06
2.56826e-06
0.00026659
-5.20023e-06
2.46341e-06
-1.82029e-06
2.51473e-06
0.000268528
-5.05116e-06
2.38966e-06
-1.7466e-06
2.47028e-06
0.00027035
-4.90174e-06
2.32046e-06
-1.67225e-06
2.43162e-06
0.000272042
-4.7459e-06
2.25257e-06
-1.59452e-06
2.39563e-06
0.000273591
-4.57995e-06
2.18307e-06
-1.51124e-06
2.35947e-06
0.000274985
-4.40274e-06
2.10931e-06
-1.42118e-06
2.32062e-06
0.000276218
-4.21527e-06
2.02887e-06
-1.3243e-06
2.277e-06
0.000277294
-4.02023e-06
1.93971e-06
-1.22179e-06
2.22705e-06
0.00027822
-3.8213e-06
1.8404e-06
-1.11584e-06
2.16991e-06
0.000279016
-3.62234e-06
1.73029e-06
-1.00908e-06
2.10541e-06
0.000279703
-3.42666e-06
1.60958e-06
-9.04021e-07
2.03402e-06
0.000280306
-3.23681e-06
1.47951e-06
-8.02604e-07
1.95678e-06
0.00028085
-3.05436e-06
1.34219e-06
-7.06138e-07
1.87509e-06
0.000281354
-2.87982e-06
1.20035e-06
-6.15464e-07
1.79039e-06
0.000281837
-2.71336e-06
1.05703e-06
-5.3082e-07
1.70411e-06
0.000282311
-2.55458e-06
9.14702e-07
-4.51708e-07
1.61754e-06
0.000282784
-2.40236e-06
7.75441e-07
-3.77657e-07
1.53137e-06
0.000283262
-2.2566e-06
6.40833e-07
-3.08026e-07
1.44665e-06
0.000283743
-2.11377e-06
5.11095e-07
-2.41746e-07
1.36248e-06
0.000284231
-1.97752e-06
3.89601e-07
-1.80297e-07
1.28084e-06
0.000284713
-1.82393e-06
2.70796e-07
-1.19169e-07
1.19026e-06
0.000285198
-1.67366e-06
1.38786e-07
-4.70838e-08
1.09699e-06
-9.31544e-07
-1.33293e-07
1.11934e-07
6.26454e-07
7.67309e-06
1.25208e-05
-1.20438e-07
-3.28138e-06
-8.35495e-06
7.16665e-06
4.26871e-06
-1.56073e-07
-9.77325e-07
-2.62888e-06
6.67252e-06
2.54049e-06
-1.72744e-07
-4.66908e-07
-1.4067e-06
6.31784e-06
1.42054e-06
-1.89473e-07
-1.64477e-07
-7.11918e-07
6.07335e-06
8.60499e-07
-1.76112e-07
-4.20786e-08
-3.97818e-07
5.90401e-06
5.4651e-07
-1.79327e-07
3.34325e-08
-2.31278e-07
5.78601e-06
3.53758e-07
-1.90984e-07
8.7149e-08
-1.31924e-07
5.70311e-06
2.31972e-07
-2.05345e-07
1.26391e-07
-7.01102e-08
5.64416e-06
1.5338e-07
-2.2155e-07
1.57459e-07
-3.03474e-08
5.60137e-06
1.02485e-07
-2.39104e-07
1.83699e-07
-4.28902e-09
5.56901e-06
7.08686e-08
-2.57345e-07
2.06488e-07
1.23548e-08
5.54282e-06
5.36481e-08
-2.7579e-07
2.2643e-07
2.18978e-08
5.51947e-06
4.74601e-08
-2.93237e-07
2.43196e-07
2.59318e-08
5.49653e-06
4.92722e-08
-3.08046e-07
2.55982e-07
2.57299e-08
5.47241e-06
5.63594e-08
-3.18991e-07
2.64259e-07
2.24877e-08
5.44622e-06
6.63905e-08
-3.25438e-07
2.67943e-07
1.72974e-08
5.41758e-06
7.75066e-08
-3.27385e-07
2.67419e-07
1.10969e-08
5.38651e-06
8.83447e-08
-3.25302e-07
2.63391e-07
4.6382e-09
5.35326e-06
9.79991e-08
-3.19906e-07
2.56689e-07
-1.52615e-09
5.31823e-06
1.05963e-07
-3.11991e-07
2.48119e-07
-7.06693e-09
5.28193e-06
1.12055e-07
-3.02336e-07
2.38401e-07
-1.18206e-08
5.24482e-06
1.1634e-07
-2.91617e-07
2.28127e-07
-1.57345e-08
5.2073e-06
1.1899e-07
-2.80359e-07
2.17725e-07
-1.88409e-08
5.16976e-06
1.20193e-07
-2.6894e-07
2.07491e-07
-2.11965e-08
5.13249e-06
1.20138e-07
-2.57645e-07
1.9764e-07
-2.28641e-08
5.09575e-06
1.19029e-07
-2.46699e-07
1.88325e-07
-2.39129e-08
5.05973e-06
1.17036e-07
-2.36219e-07
1.79614e-07
-2.44028e-08
5.02457e-06
1.14291e-07
-2.26304e-07
1.7155e-07
-2.43847e-08
4.99039e-06
1.11082e-07
-2.1688e-07
1.64012e-07
-2.40238e-08
4.95722e-06
1.07731e-07
-2.07887e-07
1.56867e-07
-2.35522e-08
4.92518e-06
1.04572e-07
-1.98762e-07
1.49535e-07
-2.3322e-08
4.89403e-06
1.02979e-07
-1.90716e-07
1.42866e-07
-2.39739e-08
4.86508e-06
9.85852e-08
-1.75815e-07
1.30565e-07
-2.44328e-08
4.83434e-06
1.06837e-07
-1.78698e-07
1.31775e-07
-2.91355e-08
9.24601e-08
-7.13311e-08
3.63136e-08
-3.85397e-08
1.15129e-05
-7.15034e-06
1.45897e-05
1.0335e-07
-6.52525e-06
1.07895e-05
-2.25951e-06
5.0204e-06
-1.72663e-07
-1.86485e-06
1.00843e-05
-1.24843e-06
3.04474e-06
-2.32145e-07
-8.58983e-07
9.56612e-06
-6.82496e-07
1.75818e-06
-2.60576e-07
-2.96937e-07
9.20413e-06
-4.16252e-07
1.09552e-06
-2.41787e-07
-7.54914e-08
8.94999e-06
-2.797e-07
7.18264e-07
-2.41477e-07
5.70502e-08
8.77014e-06
-2.02775e-07
4.85819e-07
-2.51207e-07
1.48014e-07
8.64197e-06
-1.57443e-07
3.37789e-07
-2.63553e-07
2.11379e-07
8.54963e-06
-1.30843e-07
2.41812e-07
-2.77655e-07
2.59027e-07
8.48186e-06
-1.16124e-07
1.79377e-07
-2.92968e-07
2.97481e-07
8.43028e-06
-1.09571e-07
1.40639e-07
-3.09112e-07
3.29629e-07
8.38836e-06
-1.09248e-07
1.20155e-07
-3.25743e-07
3.56759e-07
8.35118e-06
-1.13419e-07
1.13561e-07
-3.41855e-07
3.78893e-07
8.31511e-06
-1.20235e-07
1.1691e-07
-3.55761e-07
3.95147e-07
8.27771e-06
-1.28057e-07
1.26654e-07
-3.6604e-07
4.04848e-07
8.23751e-06
-1.35647e-07
1.39788e-07
-3.71992e-07
4.08054e-07
8.19386e-06
-1.42176e-07
1.53929e-07
-3.73564e-07
4.05451e-07
8.14674e-06
-1.47167e-07
1.6735e-07
-3.71167e-07
3.98104e-07
8.0965e-06
-1.50445e-07
1.78944e-07
-3.65475e-07
3.87222e-07
8.04371e-06
-1.52038e-07
1.88117e-07
-3.57233e-07
3.73945e-07
7.98905e-06
-1.521e-07
1.94672e-07
-3.47151e-07
3.5924e-07
7.9332e-06
-1.50875e-07
1.98705e-07
-3.35874e-07
3.43893e-07
7.8768e-06
-1.48607e-07
2.00445e-07
-3.23921e-07
3.28482e-07
7.82039e-06
-1.45491e-07
2.00167e-07
-3.11637e-07
3.13363e-07
7.76444e-06
-1.41724e-07
1.98204e-07
-2.99302e-07
2.98784e-07
7.70927e-06
-1.37474e-07
1.9486e-07
-2.87098e-07
2.84874e-07
7.65518e-06
-1.32969e-07
1.90575e-07
-2.75169e-07
2.71658e-07
7.60236e-06
-1.28586e-07
1.85938e-07
-2.63917e-07
2.59378e-07
7.55097e-06
-1.24586e-07
1.81461e-07
-2.53434e-07
2.47919e-07
7.50113e-06
-1.21447e-07
1.77888e-07
-2.44339e-07
2.37736e-07
7.45306e-06
-1.18433e-07
1.74172e-07
-2.35833e-07
2.28125e-07
7.40655e-06
-1.15796e-07
1.70811e-07
-2.28928e-07
2.20471e-07
7.36352e-06
-1.06981e-07
1.58603e-07
-2.13791e-07
2.05255e-07
7.31841e-06
-1.05893e-07
1.57991e-07
-2.13871e-07
2.06906e-07
-6.05109e-08
1.2218e-07
-8.8551e-08
5.51039e-08
1.38967e-05
-9.05555e-06
-6.71536e-06
8.29885e-06
9.30828e-06
1.2747e-05
-2.64458e-06
-2.24622e-06
3.06084e-06
2.97965e-06
1.17519e-05
-1.23287e-06
-1.3422e-06
1.92323e-06
1.64694e-06
1.10654e-05
-5.15887e-07
-8.34527e-07
1.24225e-06
7.94663e-07
1.06105e-05
-2.3982e-07
-5.67743e-07
8.61797e-07
4.00679e-07
1.03064e-05
-9.73236e-08
-4.52301e-07
6.82094e-07
1.71653e-07
1.01016e-05
-1.04047e-08
-4.04166e-07
5.98535e-07
2.08305e-08
9.96237e-06
4.51623e-08
-3.8765e-07
5.62929e-07
-8.11983e-08
9.86652e-06
8.32711e-08
-3.89908e-07
5.55974e-07
-1.53491e-07
9.79948e-06
1.11606e-07
-4.04623e-07
5.67991e-07
-2.07931e-07
9.75088e-06
1.33995e-07
-4.27859e-07
5.93278e-07
-2.5082e-07
9.71317e-06
1.5191e-07
-4.56873e-07
6.27613e-07
-2.84931e-07
9.68063e-06
1.65576e-07
-4.88166e-07
6.66108e-07
-3.10984e-07
9.64908e-06
1.74922e-07
-5.17822e-07
7.03604e-07
-3.29157e-07
9.61567e-06
1.79945e-07
-5.426e-07
7.35683e-07
-3.39614e-07
9.57866e-06
1.80946e-07
-5.60432e-07
7.59416e-07
-3.42919e-07
9.53723e-06
1.78517e-07
-5.70556e-07
7.73546e-07
-3.40076e-07
9.49125e-06
1.7343e-07
-5.7325e-07
7.78175e-07
-3.32374e-07
9.44106e-06
1.66488e-07
-5.69418e-07
7.74274e-07
-3.2116e-07
9.38731e-06
1.58426e-07
-5.60282e-07
7.63288e-07
-3.07682e-07
9.33078e-06
1.49848e-07
-5.47154e-07
7.46833e-07
-2.92991e-07
9.27226e-06
1.41213e-07
-5.31256e-07
7.26463e-07
-2.77907e-07
9.21253e-06
1.32833e-07
-5.13606e-07
7.0351e-07
-2.63007e-07
9.15226e-06
1.249e-07
-4.94988e-07
6.7903e-07
-2.48673e-07
9.09205e-06
1.1754e-07
-4.76003e-07
6.53841e-07
-2.35168e-07
9.0324e-06
1.10831e-07
-4.5712e-07
6.2861e-07
-2.22663e-07
8.9737e-06
1.04801e-07
-4.38616e-07
6.03776e-07
-2.11237e-07
8.91627e-06
9.94548e-08
-4.20645e-07
5.79551e-07
-2.00937e-07
8.86034e-06
9.46305e-08
-4.03247e-07
5.56089e-07
-1.91527e-07
8.80603e-06
9.01417e-08
-3.86515e-07
5.33388e-07
-1.82735e-07
8.75353e-06
8.53628e-08
-3.69652e-07
5.10386e-07
-1.73644e-07
8.70244e-06
8.07099e-08
-3.55905e-07
4.91001e-07
-1.64703e-07
8.65472e-06
7.17629e-08
-3.28534e-07
4.54116e-07
-1.49728e-07
8.60344e-06
7.12848e-08
-3.40906e-07
4.66635e-07
-1.45632e-07
-9.86859e-09
-1.32675e-07
2.02174e-07
-2.62323e-08
1.29822e-05
-8.39111e-06
-8.53387e-06
1.06071e-05
7.92134e-06
1.19891e-05
-2.47413e-06
-2.72598e-06
3.72682e-06
2.46634e-06
1.11145e-05
-1.16658e-06
-1.55634e-06
2.2636e-06
1.33397e-06
1.05016e-05
-4.72274e-07
-9.43472e-07
1.42315e-06
6.05522e-07
1.00887e-05
-2.01739e-07
-6.33448e-07
9.71734e-07
2.76306e-07
9.80824e-06
-5.59346e-08
-4.93269e-07
7.48723e-07
8.09381e-08
9.61627e-06
3.54699e-08
-4.2901e-07
6.35224e-07
-4.97103e-08
9.48386e-06
9.4132e-08
-3.99656e-07
5.764e-07
-1.38467e-07
9.39164e-06
1.34619e-07
-3.9008e-07
5.4939e-07
-2.01703e-07
9.32645e-06
1.6567e-07
-3.93685e-07
5.43324e-07
-2.50127e-07
9.27887e-06
1.90967e-07
-4.06592e-07
5.51964e-07
-2.88758e-07
9.24184e-06
2.118e-07
-4.2624e-07
5.71232e-07
-3.19757e-07
9.21002e-06
2.2838e-07
-4.49679e-07
5.96975e-07
-3.4386e-07
9.17947e-06
2.40309e-07
-4.73341e-07
6.24498e-07
-3.6092e-07
9.14744e-06
2.47319e-07
-4.94101e-07
6.4966e-07
-3.70845e-07
9.11222e-06
2.49567e-07
-5.09914e-07
6.69588e-07
-3.74019e-07
9.07297e-06
2.47619e-07
-5.19805e-07
6.82732e-07
-3.71297e-07
9.02953e-06
2.42286e-07
-5.23673e-07
6.88653e-07
-3.63825e-07
8.9822e-06
2.34477e-07
-5.22041e-07
6.8775e-07
-3.52856e-07
8.93157e-06
2.25047e-07
-5.15755e-07
6.80898e-07
-3.3956e-07
8.87836e-06
2.1472e-07
-5.05777e-07
6.6919e-07
-3.24929e-07
8.82334e-06
2.04071e-07
-4.93078e-07
6.53781e-07
-3.09757e-07
8.76724e-06
1.93525e-07
-4.78494e-07
6.3571e-07
-2.94635e-07
8.71069e-06
1.8335e-07
-4.62656e-07
6.15801e-07
-2.79944e-07
8.65425e-06
1.73722e-07
-4.4609e-07
5.9475e-07
-2.6594e-07
8.59837e-06
1.64725e-07
-4.29182e-07
5.73075e-07
-2.52747e-07
8.54342e-06
1.56346e-07
-4.12326e-07
5.51307e-07
-2.40359e-07
8.48963e-06
1.48629e-07
-3.9614e-07
5.30128e-07
-2.28841e-07
8.4372e-06
1.41372e-07
-3.80954e-07
5.0996e-07
-2.17972e-07
8.38621e-06
1.34689e-07
-3.67741e-07
4.91949e-07
-2.07914e-07
8.33689e-06
1.2814e-07
-3.54962e-07
4.74325e-07
-1.98255e-07
8.28904e-06
1.22861e-07
-3.44751e-07
4.60135e-07
-1.90321e-07
8.24467e-06
1.13232e-07
-3.19341e-07
4.28187e-07
-1.77688e-07
8.19785e-06
1.157e-07
-3.2264e-07
4.32254e-07
-1.78472e-07
7.56848e-09
-1.32516e-07
2.018e-07
-4.65818e-08
4.87903e-06
7.98389e-06
-2.81786e-06
-5.02954e-06
3.71556e-06
2.00239e-06
-6.56645e-07
-1.02031e-06
3.18014e-06
7.57685e-07
-2.4351e-07
-3.36573e-07
2.93763e-06
3.62201e-07
-8.1887e-08
-1.34677e-07
2.81357e-06
1.67541e-07
-4.69151e-08
-5.55956e-08
2.74392e-06
1.02301e-07
-2.64321e-08
-3.0884e-08
2.70373e-06
8.6384e-08
-1.06428e-08
-2.32795e-08
2.6808e-06
8.57154e-08
6.7027e-10
-2.09226e-08
2.66859e-06
9.33998e-08
9.48912e-09
-2.1738e-08
2.66353e-06
1.06206e-07
1.70247e-08
-2.44917e-08
2.66345e-06
1.22126e-07
2.38172e-08
-2.83626e-08
2.66699e-06
1.40082e-07
3.01781e-08
-3.29329e-08
2.67324e-06
1.59104e-07
3.61884e-08
-3.78547e-08
2.68153e-06
1.78181e-07
4.17926e-08
-4.28017e-08
2.69136e-06
1.96308e-07
4.68686e-08
-4.74752e-08
2.70231e-06
2.12643e-07
5.12958e-08
-5.16394e-08
2.714e-06
2.26583e-07
5.49916e-08
-5.51368e-08
2.72609e-06
2.37809e-07
5.79281e-08
-5.7893e-08
2.7383e-06
2.46193e-07
6.01064e-08
-5.98884e-08
2.75037e-06
2.51776e-07
6.15602e-08
-6.11482e-08
2.76211e-06
2.54735e-07
6.23497e-08
-6.17299e-08
2.77338e-06
2.55306e-07
6.25369e-08
-6.17069e-08
2.78406e-06
2.53779e-07
6.21946e-08
-6.11655e-08
2.7941e-06
2.50471e-07
6.14023e-08
-6.0193e-08
2.80346e-06
2.45707e-07
6.02463e-08
-5.88771e-08
2.81215e-06
2.39781e-07
5.88017e-08
-5.72952e-08
2.82021e-06
2.33011e-07
5.71359e-08
-5.55298e-08
2.82767e-06
2.25605e-07
5.52924e-08
-5.36438e-08
2.83456e-06
2.17637e-07
5.32485e-08
-5.16509e-08
2.84088e-06
2.09552e-07
5.111e-08
-4.96905e-08
2.84664e-06
2.00471e-07
4.86832e-08
-4.74701e-08
2.85187e-06
1.93268e-07
4.6769e-08
-4.58523e-08
2.85668e-06
1.74894e-07
4.19365e-08
-4.07529e-08
2.86017e-06
1.8623e-07
4.54866e-08
-4.49203e-08
-3.83232e-08
-2.2103e-08
2.07142e-08
4.1281e-05
-9.31981e-06
2.19754e-05