/*--------------------------------*- C++ -*----------------------------------*\
| =========                 |                                                 |
| \\      /  F ield         | OpenFOAM: The Open Source CFD Toolbox           |
|  \\    /   O peration     | Version:  2.4.x                                 |
|   \\  /    A nd           | Web:      www.OpenFOAM.org                      |
|    \\/     M anipulation  |                                                 |
\*---------------------------------------------------------------------------*/
FoamFile
{
    version     2.0;
    format      ascii;
    class       volVectorField;
    location    "9970/coolant";
    object      U;
}
// * * * * * * * * * * * * * * * * * * * * * * * * * * * * * * * * * * * * * //

dimensions      [0 1 -1 0 0 0 0];

internalField   nonuniform List<vector> 
109760
(
(0.00191264 0.00213055 -0.10301)
(0.000871498 0.00101558 -0.107413)
(0.000658628 0.000779497 -0.109772)
(0.000531537 0.000650986 -0.111378)
(0.00043194 0.000543138 -0.112729)
(0.00037337 0.000478939 -0.113869)
(0.0003345 0.000436931 -0.114809)
(0.000303467 0.000403403 -0.115562)
(0.000276767 0.000374627 -0.116132)
(0.000252534 0.000348712 -0.116519)
(0.000229537 0.000324329 -0.116732)
(0.000207265 0.000300916 -0.116792)
(0.000185674 0.000278452 -0.116731)
(0.000164965 0.000257168 -0.116586)
(0.00014544 0.00023735 -0.116393)
(0.000127365 0.000219188 -0.116185)
(0.000110917 0.000202756 -0.115984)
(9.61558e-05 0.000188014 -0.115808)
(8.30324e-05 0.000174833 -0.115667)
(7.14283e-05 0.000163054 -0.115565)
(6.11915e-05 0.000152509 -0.115504)
(5.21601e-05 0.000143036 -0.115485)
(4.41761e-05 0.00013448 -0.115505)
(3.70934e-05 0.000126698 -0.115561)
(3.07865e-05 0.000119562 -0.11565)
(2.5139e-05 0.000112962 -0.115768)
(2.00418e-05 0.000106804 -0.115913)
(1.53985e-05 0.000100978 -0.11608)
(1.10988e-05 9.53868e-05 -0.116266)
(7.14821e-06 8.99328e-05 -0.116468)
(3.44208e-06 8.44e-05 -0.116685)
(2.11958e-07 7.89797e-05 -0.116911)
(-3.06473e-06 7.22744e-05 -0.117144)
(-6.49965e-06 6.60736e-05 -0.11737)
(-1.96721e-05 2.82897e-05 -0.117634)
(0.00262844 0.00286094 -0.102088)
(0.000976085 0.00130904 -0.105439)
(0.000699495 0.00095761 -0.105794)
(0.000491479 0.000736043 -0.105288)
(0.000354176 0.000568541 -0.104326)
(0.000266419 0.000455369 -0.10306)
(0.000202159 0.000373767 -0.101662)
(0.000151747 0.000311156 -0.10028)
(0.000112008 0.000263217 -0.0990105)
(8.05522e-05 0.000226943 -0.097898)
(5.54034e-05 0.000199748 -0.0969569)
(3.51284e-05 0.00017962 -0.0961839)
(1.85594e-05 0.000164984 -0.0955652)
(4.83832e-06 0.000154577 -0.095084)
(-6.5897e-06 0.000147319 -0.0947231)
(-1.61286e-05 0.0001423 -0.0944661)
(-2.41039e-05 0.000138822 -0.0942984)
(-3.0769e-05 0.000136324 -0.0942068)
(-3.63125e-05 0.000134377 -0.0941795)
(-4.08905e-05 0.000132668 -0.0942063)
(-4.46375e-05 0.000130975 -0.0942781)
(-4.76705e-05 0.000129146 -0.0943874)
(-5.00853e-05 0.000127085 -0.0945273)
(-5.19594e-05 0.000124747 -0.0946921)
(-5.33569e-05 0.000122121 -0.0948764)
(-5.43354e-05 0.000119231 -0.0950758)
(-5.49398e-05 0.000116137 -0.0952863)
(-5.51998e-05 0.00011285 -0.095505)
(-5.51708e-05 0.000109391 -0.0957297)
(-5.48468e-05 0.000105688 -0.0959584)
(-5.43041e-05 0.00010148 -0.0961892)
(-5.35218e-05 9.71029e-05 -0.0964198)
(-5.20825e-05 9.01978e-05 -0.096647)
(-5.21631e-05 8.72047e-05 -0.0968605)
(-3.82177e-05 3.56419e-05 -0.0970945)
(0.00150872 0.0023046 -0.0778481)
(0.000401976 0.000620549 -0.0645362)
(0.000211802 0.00025706 -0.054568)
(0.000136586 9.65863e-05 -0.0496588)
(9.26734e-05 4.37638e-05 -0.0470695)
(8.19486e-05 1.77302e-05 -0.0455759)
(8.30668e-05 1.6865e-06 -0.0446812)
(8.74173e-05 -8.71453e-06 -0.044141)
(9.3597e-05 -1.60265e-05 -0.0438177)
(0.00010148 -2.16704e-05 -0.0436309)
(0.000110926 -2.63764e-05 -0.0435301)
(0.000121437 -3.03966e-05 -0.0434801)
(0.000132178 -3.37622e-05 -0.0434549)
(0.000142128 -3.63985e-05 -0.0434342)
(0.000150387 -3.82163e-05 -0.0434029)
(0.000156405 -3.91991e-05 -0.0433507)
(0.000159984 -3.94054e-05 -0.0432716)
(0.000161214 -3.89473e-05 -0.0431633)
(0.000160385 -3.79694e-05 -0.0430265)
(0.00015788 -3.662e-05 -0.0428638)
(0.000154104 -3.50335e-05 -0.0426792)
(0.000149442 -3.33244e-05 -0.042477)
(0.000144219 -3.15824e-05 -0.0422616)
(0.000138682 -2.98704e-05 -0.0420372)
(0.000133024 -2.82341e-05 -0.0418077)
(0.000127376 -2.6701e-05 -0.0415762)
(0.000121847 -2.52781e-05 -0.0413454)
(0.000116561 -2.39745e-05 -0.0411177)
(0.000111549 -2.27504e-05 -0.0408943)
(0.000107053 -2.16023e-05 -0.0406762)
(0.000102574 -2.04352e-05 -0.0404625)
(9.91932e-05 -1.94173e-05 -0.040255)
(9.07543e-05 -1.7581e-05 -0.0400463)
(9.44352e-05 -1.78531e-05 -0.0398707)
(1.58096e-05 3.06295e-06 -0.0396114)
(0.00267571 0.00278657 -0.0945473)
(0.000924056 0.00098803 -0.0915444)
(0.000533659 0.000577515 -0.0860172)
(0.000294837 0.000347543 -0.0814561)
(0.00016797 0.000214928 -0.0780708)
(0.000101411 0.000143231 -0.0756063)
(6.2772e-05 0.000101987 -0.0738131)
(3.83792e-05 7.59778e-05 -0.0725145)
(2.24912e-05 5.92261e-05 -0.071577)
(1.17788e-05 4.8454e-05 -0.0709034)
(4.16079e-06 4.15995e-05 -0.0704279)
(-1.57046e-06 3.74022e-05 -0.0701023)
(-6.07882e-06 3.5038e-05 -0.0698934)
(-9.76886e-06 3.39229e-05 -0.069778)
(-1.28652e-05 3.36257e-05 -0.069738)
(-1.5482e-05 3.38171e-05 -0.0697597)
(-1.76971e-05 3.42574e-05 -0.0698319)
(-1.95621e-05 3.47828e-05 -0.0699453)
(-2.11105e-05 3.52751e-05 -0.0700924)
(-2.23676e-05 3.56542e-05 -0.0702667)
(-2.3355e-05 3.58709e-05 -0.0704632)
(-2.40984e-05 3.59009e-05 -0.0706773)
(-2.46312e-05 3.57388e-05 -0.0709055)
(-2.49879e-05 3.5392e-05 -0.0711445)
(-2.51971e-05 3.48758e-05 -0.0713919)
(-2.52772e-05 3.4213e-05 -0.0716453)
(-2.52285e-05 3.3449e-05 -0.0719028)
(-2.50264e-05 3.25834e-05 -0.0721628)
(-2.46931e-05 3.16374e-05 -0.0724237)
(-2.42439e-05 3.05478e-05 -0.0726845)
(-2.3813e-05 2.91452e-05 -0.0729445)
(-2.35012e-05 2.76112e-05 -0.0732031)
(-2.29821e-05 2.45278e-05 -0.0734603)
(-2.39676e-05 2.39955e-05 -0.0737032)
(-1.70816e-05 -6.0518e-06 -0.0739906)
(0.0020753 0.00194953 -0.0762903)
(0.000588595 0.000485518 -0.0623726)
(0.000239678 0.000205229 -0.05269)
(0.000125508 7.48544e-05 -0.0478844)
(6.10219e-05 3.76679e-05 -0.0453537)
(4.02753e-05 1.83957e-05 -0.0438993)
(3.71975e-05 4.35935e-06 -0.0430194)
(3.9254e-05 -5.74231e-06 -0.0424776)
(4.40832e-05 -1.36103e-05 -0.0421502)
(5.0695e-05 -2.03057e-05 -0.0419639)
(5.84236e-05 -2.63256e-05 -0.0418743)
(6.69045e-05 -3.19546e-05 -0.0418544)
(7.57613e-05 -3.72856e-05 -0.0418863)
(8.45685e-05 -4.22827e-05 -0.0419576)
(9.28845e-05 -4.68416e-05 -0.042059)
(0.000100325 -5.08445e-05 -0.0421828)
(0.000106609 -5.41992e-05 -0.0423226)
(0.000111589 -5.68598e-05 -0.0424723)
(0.00011521 -5.88134e-05 -0.0426269)
(0.000117503 -6.00828e-05 -0.0427821)
(0.00011856 -6.07184e-05 -0.0429344)
(0.000118507 -6.07796e-05 -0.0430809)
(0.000117494 -6.0338e-05 -0.0432198)
(0.000115679 -5.94718e-05 -0.0433497)
(0.000113224 -5.82649e-05 -0.0434701)
(0.000110272 -5.67943e-05 -0.0435808)
(0.000106968 -5.51273e-05 -0.0436821)
(0.000103418 -5.33172e-05 -0.0437747)
(9.96531e-05 -5.13587e-05 -0.0438592)
(9.58639e-05 -4.93255e-05 -0.0439361)
(9.16988e-05 -4.70866e-05 -0.0440054)
(8.82937e-05 -4.51549e-05 -0.0440686)
(8.03265e-05 -4.12039e-05 -0.0441245)
(8.4254e-05 -4.25898e-05 -0.0441784)
(-8.59243e-06 4.70738e-06 -0.0442061)
(0.00272099 0.00273999 -0.102173)
(0.00116785 0.00112181 -0.105584)
(0.000838601 0.000814725 -0.106114)
(0.000618436 0.000605297 -0.105784)
(0.000461999 0.000454905 -0.104991)
(0.000358985 0.000356076 -0.103861)
(0.000283991 0.000283735 -0.102548)
(0.00022532 0.000226551 -0.101205)
(0.000179418 0.000181425 -0.0999384)
(0.000143838 0.000146196 -0.0988068)
(0.000116345 0.000118796 -0.0978348)
(9.51294e-05 9.7524e-05 -0.0970252)
(7.87548e-05 8.09914e-05 -0.0963693)
(6.60605e-05 6.80929e-05 -0.095853)
(5.61526e-05 5.79715e-05 -0.0954605)
(4.83581e-05 4.9954e-05 -0.095176)
(4.21531e-05 4.35292e-05 -0.094985)
(3.7138e-05 3.83137e-05 -0.0948743)
(3.30211e-05 3.40103e-05 -0.0948323)
(2.95937e-05 3.03917e-05 -0.0948488)
(2.67056e-05 2.72897e-05 -0.0949147)
(2.42437e-05 2.45793e-05 -0.0950224)
(2.21154e-05 2.21688e-05 -0.0951651)
(2.02446e-05 1.99927e-05 -0.0953368)
(1.85688e-05 1.80067e-05 -0.0955324)
(1.703e-05 1.61796e-05 -0.0957475)
(1.55865e-05 1.44968e-05 -0.0959785)
(1.42095e-05 1.29139e-05 -0.0962224)
(1.28489e-05 1.13919e-05 -0.0964768)
(1.15242e-05 9.85889e-06 -0.0967398)
(1.00788e-05 8.17205e-06 -0.0970086)
(8.73356e-06 6.46075e-06 -0.0972803)
(6.688e-06 4.0043e-06 -0.0975516)
(5.05485e-06 1.64191e-06 -0.0978095)
(-1.39399e-05 -1.59479e-05 -0.0981019)
(0.00113302 0.000233358 -0.102418)
(0.000694264 0.000116655 -0.106484)
(0.000510089 8.77643e-05 -0.109186)
(0.000447897 7.63986e-05 -0.111014)
(0.000383529 6.36579e-05 -0.112614)
(0.000343212 5.62054e-05 -0.114069)
(0.000319565 5.18285e-05 -0.115398)
(0.000302554 4.85686e-05 -0.116642)
(0.000289776 4.60317e-05 -0.117826)
(0.00028022 4.40419e-05 -0.118964)
(0.000272979 4.24272e-05 -0.120067)
(0.000267458 4.10747e-05 -0.121142)
(0.000263259 3.99125e-05 -0.122194)
(0.000260061 3.88888e-05 -0.12323)
(0.000257588 3.79694e-05 -0.12425)
(0.000255606 3.71366e-05 -0.125259)
(0.000253924 3.6386e-05 -0.126256)
(0.00025239 3.57211e-05 -0.127244)
(0.000250889 3.51479e-05 -0.12822)
(0.00024934 3.46701e-05 -0.129185)
(0.000247697 3.42845e-05 -0.130138)
(0.000245937 3.3976e-05 -0.131076)
(0.000244052 3.3713e-05 -0.131997)
(0.00024204 3.34469e-05 -0.132899)
(0.000239894 3.31117e-05 -0.133778)
(0.000237588 3.26283e-05 -0.134631)
(0.000235081 3.19135e-05 -0.135452)
(0.000232312 3.08858e-05 -0.136238)
(0.000229183 2.94808e-05 -0.136983)
(0.000225631 2.76646e-05 -0.137684)
(0.000221416 2.54251e-05 -0.138334)
(0.000216571 2.28362e-05 -0.13893)
(0.000209689 1.98594e-05 -0.139468)
(0.000200385 1.6254e-05 -0.139934)
(0.000133945 7.41973e-06 -0.140387)
(0.00293426 0.00270457 -0.101266)
(0.00142314 0.000940594 -0.103807)
(0.00102365 0.000656138 -0.103018)
(0.000770594 0.000432466 -0.101446)
(0.000580383 0.000294381 -0.0996073)
(0.000454239 0.000208655 -0.0977158)
(0.000367526 0.000147292 -0.0959377)
(0.000305292 0.000100628 -0.0943742)
(0.000261006 6.47658e-05 -0.0930574)
(0.000230075 3.68749e-05 -0.0919775)
(0.000209002 1.4801e-05 -0.0911106)
(0.000195288 -3.02019e-06 -0.0904274)
(0.000187085 -1.77367e-05 -0.0899011)
(0.000182846 -3.01528e-05 -0.0895085)
(0.00018133 -4.07574e-05 -0.0892295)
(0.000181556 -4.98312e-05 -0.0890465)
(0.000182716 -5.7555e-05 -0.0889436)
(0.000184181 -6.40583e-05 -0.0889069)
(0.00018548 -6.94451e-05 -0.0889245)
(0.000186301 -7.38074e-05 -0.0889858)
(0.000186453 -7.72398e-05 -0.0890817)
(0.000185827 -7.98236e-05 -0.0892043)
(0.000184388 -8.16253e-05 -0.0893468)
(0.000182159 -8.2713e-05 -0.0895032)
(0.000179202 -8.31572e-05 -0.0896686)
(0.0001756 -8.30268e-05 -0.0898391)
(0.000171484 -8.23864e-05 -0.0900114)
(0.000166965 -8.13042e-05 -0.0901832)
(0.000162118 -7.98101e-05 -0.0903528)
(0.000157077 -7.7977e-05 -0.0905193)
(0.00015151 -7.58689e-05 -0.0906818)
(0.000146085 -7.37034e-05 -0.0908403)
(0.000137121 -7.05411e-05 -0.0909935)
(0.000134958 -6.9889e-05 -0.091137)
(6.43768e-05 -3.83598e-05 -0.091289)
(0.00148962 0.0011561 -0.102662)
(0.00081767 0.000553675 -0.106886)
(0.000613422 0.000419626 -0.109518)
(0.000528528 0.000358305 -0.111327)
(0.000448081 0.000295266 -0.112913)
(0.000399823 0.000258812 -0.114348)
(0.000370785 0.000237058 -0.115656)
(0.00034959 0.000220908 -0.116874)
(0.000333456 0.000208379 -0.118026)
(0.000321108 0.000198537 -0.119124)
(0.000311484 0.000190535 -0.120174)
(0.00030389 0.000183802 -0.12118)
(0.000297818 0.000177937 -0.122142)
(0.000292785 0.0001726 -0.123058)
(0.000288293 0.000167479 -0.123924)
(0.000283829 0.000162281 -0.124733)
(0.000278922 0.000156735 -0.12548)
(0.000273195 0.000150626 -0.126158)
(0.000266419 0.000143812 -0.126762)
(0.000258526 0.000136251 -0.127292)
(0.000249598 0.000127986 -0.127751)
(0.000239814 0.000119132 -0.128145)
(0.000229405 0.000109843 -0.128483)
(0.00021862 0.000100295 -0.128777)
(0.000207691 9.06708e-05 -0.129038)
(0.000196802 8.11455e-05 -0.129276)
(0.000186099 7.1874e-05 -0.129502)
(0.000175686 6.29556e-05 -0.129721)
(0.000165592 5.44567e-05 -0.129938)
(0.000155876 4.64221e-05 -0.130156)
(0.000146373 3.87964e-05 -0.130376)
(0.000137281 3.17568e-05 -0.130599)
(0.000127245 2.47925e-05 -0.130824)
(0.000117131 1.71479e-05 -0.131039)
(6.89143e-05 -2.26648e-06 -0.131293)
(0.0030735 0.000917036 -0.0927166)
(0.00100034 0.000346171 -0.08858)
(0.000558386 0.000227047 -0.0815877)
(0.000287283 0.000155009 -0.0765942)
(0.000159878 0.00011332 -0.0731693)
(8.905e-05 9.45015e-05 -0.0708011)
(4.51105e-05 8.66828e-05 -0.0691545)
(1.68126e-05 8.43324e-05 -0.0680033)
(-2.20155e-06 8.53451e-05 -0.0671888)
(-1.53885e-05 8.85517e-05 -0.066606)
(-2.45008e-05 9.31847e-05 -0.0661744)
(-3.05194e-05 9.87655e-05 -0.0658387)
(-3.40298e-05 0.000104672 -0.0655536)
(-3.54569e-05 0.000110146 -0.0652851)
(-3.52177e-05 0.000114589 -0.0650098)
(-3.37303e-05 0.000117628 -0.0647134)
(-3.1399e-05 0.000119142 -0.0643889)
(-2.8587e-05 0.000119208 -0.0640345)
(-2.55926e-05 0.00011802 -0.0636523)
(-2.26318e-05 0.000115823 -0.0632462)
(-1.98465e-05 0.00011288 -0.0628221)
(-1.7317e-05 0.000109435 -0.0623857)
(-1.50765e-05 0.000105686 -0.0619422)
(-1.31361e-05 0.00010178 -0.0614964)
(-1.14932e-05 9.78306e-05 -0.0610522)
(-1.01381e-05 9.39306e-05 -0.060613)
(-9.05035e-06 9.01322e-05 -0.0601813)
(-8.21691e-06 8.64755e-05 -0.0597592)
(-7.56553e-06 8.29548e-05 -0.0593479)
(-6.99891e-06 7.95756e-05 -0.0589489)
(-6.35585e-06 7.61677e-05 -0.0585616)
(-5.46914e-06 7.32611e-05 -0.0581896)
(-4.16019e-06 6.7811e-05 -0.0578221)
(-2.55253e-06 6.93808e-05 -0.0575071)
(1.00774e-05 3.09413e-05 -0.0570816)
(0.00087131 0.00318345 -0.0933615)
(0.000346925 0.00101913 -0.0896437)
(0.000237053 0.000561553 -0.0829293)
(0.000167172 0.000286446 -0.0780417)
(0.000124133 0.000158115 -0.0746453)
(0.00010392 8.67965e-05 -0.072267)
(9.49256e-05 4.28387e-05 -0.070588)
(9.12426e-05 1.46841e-05 -0.0693956)
(9.08012e-05 -4.08177e-06 -0.0685418)
(9.24681e-05 -1.69699e-05 -0.0679215)
(9.5585e-05 -2.57697e-05 -0.0674601)
(9.97652e-05 -3.14034e-05 -0.0670981)
(0.000104481 -3.45007e-05 -0.0667909)
(0.000109036 -3.55235e-05 -0.0665046)
(0.000112825 -3.49004e-05 -0.0662152)
(0.000115483 -3.30682e-05 -0.0659075)
(0.000116867 -3.04472e-05 -0.0655735)
(0.000117007 -2.74085e-05 -0.0652109)
(0.000116046 -2.42492e-05 -0.0648214)
(0.000114178 -2.11833e-05 -0.0644089)
(0.000111607 -1.83471e-05 -0.0639788)
(0.000108535 -1.58134e-05 -0.0635365)
(0.000105132 -1.36137e-05 -0.0630873)
(0.000101518 -1.17487e-05 -0.0626363)
(9.77966e-05 -1.01981e-05 -0.0621871)
(9.40404e-05 -8.93171e-06 -0.0617431)
(9.03182e-05 -7.88523e-06 -0.0613066)
(8.67773e-05 -6.98957e-06 -0.0608797)
(8.34721e-05 -6.15379e-06 -0.0604635)
(8.06168e-05 -5.31197e-06 -0.0600596)
(7.79132e-05 -4.55018e-06 -0.0596678)
(7.56833e-05 -4.01308e-06 -0.0592928)
(7.0508e-05 -3.97428e-06 -0.0589242)
(7.04844e-05 -4.34019e-06 -0.0586107)
(3.16833e-05 8.83215e-06 -0.0581889)
(0.0030427 0.00130728 -0.0906699)
(0.000971452 0.000468508 -0.0851149)
(0.000512829 0.000296701 -0.0773429)
(0.000247318 0.000198562 -0.0720656)
(0.000129822 0.000142103 -0.0685996)
(6.77228e-05 0.000118231 -0.0662862)
(3.0219e-05 0.00010939 -0.0647326)
(6.67101e-06 0.000107474 -0.063682)
(-8.75763e-06 0.000109673 -0.062962)
(-1.94407e-05 0.000114696 -0.0624634)
(-2.71485e-05 0.000121728 -0.0621097)
(-3.26696e-05 0.000130099 -0.0618456)
(-3.63496e-05 0.000138901 -0.0616301)
(-3.84305e-05 0.00014712 -0.0614319)
(-3.91199e-05 0.000153898 -0.061229)
(-3.86566e-05 0.000158697 -0.0610071)
(-3.73077e-05 0.000161327 -0.0607585)
(-3.53468e-05 0.00016188 -0.0604804)
(-3.30232e-05 0.000160618 -0.0601739)
(-3.05432e-05 0.000157889 -0.0598424)
(-2.80629e-05 0.000154058 -0.0594906)
(-2.56901e-05 0.000149469 -0.0591237)
(-2.34901e-05 0.000144407 -0.0587468)
(-2.1496e-05 0.000139091 -0.0583644)
(-1.97257e-05 0.000133688 -0.0579807)
(-1.81865e-05 0.000128332 -0.057599)
(-1.68745e-05 0.000123105 -0.0572223)
(-1.57904e-05 0.000118045 -0.0568529)
(-1.48739e-05 0.000113164 -0.0564922)
(-1.40513e-05 0.000108466 -0.056142)
(-1.31589e-05 0.000103703 -0.0558017)
(-1.21057e-05 9.97183e-05 -0.0554749)
(-1.04009e-05 9.20076e-05 -0.0551509)
(-9.00032e-06 9.48104e-05 -0.0548737)
(7.06679e-06 3.71438e-05 -0.0544817)
(0.00133263 0.00308237 -0.0910788)
(0.000469271 0.000973029 -0.0860744)
(0.000295936 0.000514795 -0.0787336)
(0.000206189 0.000250556 -0.0736848)
(0.000152633 0.000132428 -0.070313)
(0.000129963 6.88245e-05 -0.0680272)
(0.000121704 3.02307e-05 -0.0664664)
(0.000119512 6.05699e-06 -0.0653941)
(0.000120748 -9.76672e-06 -0.0646503)
(0.000124513 -2.08225e-05 -0.0641292)
(0.000130159 -2.87895e-05 -0.0637564)
(0.000137132 -3.44184e-05 -0.0634767)
(0.000144695 -3.81198e-05 -0.0632485)
(0.000151899 -4.01359e-05 -0.0630404)
(0.000157915 -4.06961e-05 -0.0628296)
(0.000162216 -4.00619e-05 -0.0626011)
(0.000164589 -3.85248e-05 -0.0623465)
(0.000165071 -3.63747e-05 -0.0620629)
(0.000163873 -3.38744e-05 -0.0617509)
(0.000161289 -3.12381e-05 -0.0614139)
(0.000157635 -2.86237e-05 -0.0610566)
(0.000153219 -2.61394e-05 -0.0606843)
(0.000148302 -2.38536e-05 -0.0603022)
(0.000143079 -2.1801e-05 -0.059915)
(0.000137709 -1.99946e-05 -0.0595268)
(0.000132304 -1.84288e-05 -0.0591411)
(0.000126965 -1.70655e-05 -0.0587606)
(0.000121846 -1.58643e-05 -0.0583875)
(0.000117007 -1.47389e-05 -0.0580231)
(0.0001127 -1.36331e-05 -0.0576686)
(0.000108519 -1.25593e-05 -0.0573238)
(0.000105151 -1.16632e-05 -0.0569927)
(9.7666e-05 -1.08116e-05 -0.0566663)
(9.86536e-05 -1.09331e-05 -0.0563898)
(3.97795e-05 5.88082e-06 -0.056007)
(0.00158558 0.00144224 -0.06441)
(0.000363823 0.000361165 -0.0473291)
(0.00011934 0.000140715 -0.0385011)
(5.99982e-05 4.70913e-05 -0.0347433)
(2.1898e-05 2.59379e-05 -0.0329025)
(1.33433e-05 1.38062e-05 -0.0318862)
(1.53141e-05 4.14367e-06 -0.0312991)
(1.92742e-05 -2.96102e-06 -0.0309603)
(2.43831e-05 -8.61106e-06 -0.0307706)
(3.03018e-05 -1.35297e-05 -0.0306789)
(3.67065e-05 -1.8027e-05 -0.030654)
(4.34387e-05 -2.22824e-05 -0.030677)
(5.02834e-05 -2.63373e-05 -0.0307354)
(5.69691e-05 -3.01451e-05 -0.0308207)
(6.32054e-05 -3.36157e-05 -0.0309263)
(6.87437e-05 -3.66578e-05 -0.0310471)
(7.34105e-05 -3.92061e-05 -0.0311784)
(7.71227e-05 -4.12324e-05 -0.0313162)
(7.98561e-05 -4.27325e-05 -0.0314568)
(8.16404e-05 -4.37263e-05 -0.0315972)
(8.25459e-05 -4.42534e-05 -0.0317348)
(8.26589e-05 -4.43573e-05 -0.0318676)
(8.2082e-05 -4.40898e-05 -0.0319942)
(8.09245e-05 -4.35075e-05 -0.0321136)
(7.9299e-05 -4.26709e-05 -0.0322253)
(7.73054e-05 -4.16342e-05 -0.0323292)
(7.50454e-05 -4.04465e-05 -0.0324255)
(7.25883e-05 -3.91412e-05 -0.0325148)
(6.99427e-05 -3.77092e-05 -0.0325973)
(6.72587e-05 -3.62168e-05 -0.0326734)
(6.42409e-05 -3.45412e-05 -0.0327427)
(6.18815e-05 -3.31687e-05 -0.0328064)
(5.5704e-05 -2.99826e-05 -0.0328624)
(5.98384e-05 -3.18127e-05 -0.0329185)
(-1.88833e-05 9.98587e-06 -0.032939)
(0.00276 0.0025573 -0.102212)
(0.00146835 0.000899258 -0.105545)
(0.00113136 0.000667919 -0.105302)
(0.00089916 0.000453049 -0.104251)
(0.000716048 0.000320893 -0.1028)
(0.000589869 0.000231463 -0.101124)
(0.000499615 0.000161724 -0.099423)
(0.000433249 0.000106775 -0.0978387)
(0.000385489 6.38269e-05 -0.0964463)
(0.000352462 3.01779e-05 -0.0952692)
(0.00033094 3.45841e-06 -0.094301)
(0.000318308 -1.81453e-05 -0.0935216)
(0.000312341 -3.5945e-05 -0.0929063)
(0.000311006 -5.08356e-05 -0.0924286)
(0.000312419 -6.33036e-05 -0.0920633)
(0.000314984 -7.35941e-05 -0.0917871)
(0.000317518 -8.18608e-05 -0.0915797)
(0.000319209 -8.82158e-05 -0.0914228)
(0.000319576 -9.27679e-05 -0.0913012)
(0.000318392 -9.56637e-05 -0.0912028)
(0.000315617 -9.70831e-05 -0.0911181)
(0.000311362 -9.72157e-05 -0.0910399)
(0.000305811 -9.62772e-05 -0.0909633)
(0.00029918 -9.44832e-05 -0.090885)
(0.000291689 -9.2044e-05 -0.090803)
(0.000283541 -8.91503e-05 -0.0907167)
(0.000274937 -8.59557e-05 -0.0906259)
(0.000266057 -8.25929e-05 -0.0905309)
(0.000257004 -7.91184e-05 -0.0904326)
(0.000248008 -7.55834e-05 -0.0903321)
(0.000238696 -7.20029e-05 -0.0902305)
(0.000230049 -6.849e-05 -0.0901304)
(0.000216892 -6.42502e-05 -0.0900305)
(0.000213941 -6.13649e-05 -0.0899412)
(0.000129652 -2.61222e-05 -0.0898348)
(0.0028929 0.00276143 -0.100635)
(0.00143658 0.000935511 -0.102594)
(0.00102631 0.00064141 -0.100972)
(0.000765655 0.000404692 -0.0987456)
(0.000572516 0.000265717 -0.0964418)
(0.000448234 0.000179169 -0.094251)
(0.000366912 0.000117289 -0.0923045)
(0.000311674 7.13822e-05 -0.0906623)
(0.000274565 3.69573e-05 -0.0893229)
(0.000250405 1.07211e-05 -0.0882544)
(0.000235594 -9.79004e-06 -0.0874169)
(0.000227676 -2.63348e-05 -0.0867731)
(0.000224818 -4.00855e-05 -0.0862898)
(0.000225496 -5.17625e-05 -0.0859392)
(0.000228374 -6.18008e-05 -0.0856975)
(0.000232311 -7.04197e-05 -0.0855448)
(0.000236383 -7.77163e-05 -0.0854631)
(0.00023991 -8.3751e-05 -0.0854372)
(0.000242432 -8.85573e-05 -0.0854537)
(0.000243689 -9.21854e-05 -0.0855011)
(0.000243579 -9.47058e-05 -0.08557)
(0.00024212 -9.61844e-05 -0.0856523)
(0.000239414 -9.67082e-05 -0.0857418)
(0.000235605 -9.63852e-05 -0.0858336)
(0.000230862 -9.53409e-05 -0.085924)
(0.00022536 -9.37033e-05 -0.0860106)
(0.000219288 -9.15883e-05 -0.0860916)
(0.000212811 -8.91059e-05 -0.0861663)
(0.000206034 -8.63016e-05 -0.0862344)
(0.000199159 -8.32501e-05 -0.0862962)
(0.000191838 -7.99733e-05 -0.0863521)
(0.000184965 -7.67193e-05 -0.0864037)
(0.000173775 -7.23292e-05 -0.0864501)
(0.000171891 -7.04572e-05 -0.0864951)
(8.76468e-05 -3.14105e-05 -0.0865276)
(0.00291762 0.002817 -0.0977486)
(0.00128271 0.000929018 -0.0972649)
(0.000825732 0.000583209 -0.0934989)
(0.000557299 0.000339345 -0.0898035)
(0.000378644 0.0002064 -0.0866879)
(0.000273864 0.000131618 -0.0841765)
(0.000211408 8.29578e-05 -0.082208)
(0.000172176 4.86787e-05 -0.0807009)
(0.00014766 2.36203e-05 -0.079565)
(0.000132893 4.70723e-06 -0.078717)
(0.000124708 -1.0034e-05 -0.0780924)
(0.000121092 -2.19954e-05 -0.0776413)
(0.000120682 -3.19914e-05 -0.0773269)
(0.000122436 -4.0543e-05 -0.0771223)
(0.000125504 -4.79485e-05 -0.0770069)
(0.000129205 -5.4331e-05 -0.0769648)
(0.000133012 -5.97686e-05 -0.0769831)
(0.000136537 -6.43273e-05 -0.0770504)
(0.000139499 -6.80597e-05 -0.0771569)
(0.000141724 -7.10149e-05 -0.0772944)
(0.000143127 -7.32562e-05 -0.0774556)
(0.000143677 -7.48442e-05 -0.0776343)
(0.000143384 -7.58318e-05 -0.0778253)
(0.000142299 -7.62759e-05 -0.0780241)
(0.000140497 -7.62351e-05 -0.078227)
(0.000138066 -7.57606e-05 -0.0784311)
(0.000135126 -7.48931e-05 -0.0786338)
(0.000131775 -7.36681e-05 -0.0788336)
(0.000128061 -7.20922e-05 -0.0790292)
(0.000124116 -7.02375e-05 -0.07922)
(0.000119636 -6.81467e-05 -0.0794052)
(0.000115382 -6.61818e-05 -0.0795851)
(0.000107623 -6.30404e-05 -0.079759)
(0.000107529 -6.34683e-05 -0.0799216)
(3.53063e-05 -2.86409e-05 -0.0800995)
(0.00262321 0.00277797 -0.0932172)
(0.00110395 0.000852977 -0.0893648)
(0.000671191 0.000480497 -0.0828071)
(0.000438396 0.000239497 -0.0777986)
(0.000293162 0.00012813 -0.0742316)
(0.000220041 6.7302e-05 -0.0717187)
(0.000184648 2.82071e-05 -0.0699607)
(0.000167257 1.97065e-06 -0.0687316)
(0.000160468 -1.64841e-05 -0.0678732)
(0.000160693 -3.03602e-05 -0.067276)
(0.000165755 -4.1548e-05 -0.0668669)
(0.000174253 -5.10817e-05 -0.0665951)
(0.000184991 -5.94918e-05 -0.0664258)
(0.000196721 -6.69768e-05 -0.0663333)
(0.000208235 -7.35061e-05 -0.0662969)
(0.000218528 -7.89539e-05 -0.0662998)
(0.000226869 -8.32191e-05 -0.0663277)
(0.000232847 -8.62637e-05 -0.0663689)
(0.000236352 -8.81078e-05 -0.0664138)
(0.000237481 -8.88366e-05 -0.0664554)
(0.000236467 -8.85778e-05 -0.0664888)
(0.000233629 -8.7481e-05 -0.0665108)
(0.000229315 -8.57112e-05 -0.06652)
(0.000223858 -8.34279e-05 -0.0665159)
(0.000217566 -8.07835e-05 -0.0664992)
(0.0002107 -7.79113e-05 -0.0664709)
(0.000203489 -7.49124e-05 -0.0664327)
(0.000196132 -7.18749e-05 -0.0663861)
(0.000188713 -6.88042e-05 -0.0663327)
(0.000181491 -6.57496e-05 -0.0662743)
(0.000174029 -6.26121e-05 -0.0662119)
(0.000167546 -5.96993e-05 -0.0661485)
(0.000155715 -5.52834e-05 -0.0660818)
(0.000157191 -5.42901e-05 -0.0660269)
(5.69139e-05 -1.21067e-05 -0.0659328)
(0.00128195 0.00144028 -0.0571723)
(0.000293845 0.000236281 -0.0400858)
(0.000105763 5.42301e-05 -0.0324295)
(3.33163e-05 3.09088e-05 -0.0293952)
(1.85691e-05 8.68903e-06 -0.0279383)
(8.18505e-06 8.3658e-06 -0.0271452)
(-1.02555e-07 1.39575e-05 -0.0266947)
(-5.78792e-06 1.90442e-05 -0.0264392)
(-1.01986e-05 2.40786e-05 -0.0263059)
(-1.41123e-05 2.94945e-05 -0.0262527)
(-1.78148e-05 3.52996e-05 -0.0262538)
(-2.14085e-05 4.14163e-05 -0.0262931)
(-2.49315e-05 4.77375e-05 -0.02636)
(-2.82971e-05 5.39686e-05 -0.0264474)
(-3.13642e-05 5.97569e-05 -0.0265496)
(-3.40293e-05 6.48512e-05 -0.026662)
(-3.62238e-05 6.90785e-05 -0.0267806)
(-3.79124e-05 7.2347e-05 -0.0269021)
(-3.90989e-05 7.46502e-05 -0.0270234)
(-3.98089e-05 7.60308e-05 -0.0271421)
(-4.00833e-05 7.65679e-05 -0.0272562)
(-3.9972e-05 7.63589e-05 -0.0273644)
(-3.95331e-05 7.55163e-05 -0.0274657)
(-3.88288e-05 7.41601e-05 -0.0275597)
(-3.79219e-05 7.2409e-05 -0.0276463)
(-3.68774e-05 7.03848e-05 -0.0277257)
(-3.57463e-05 6.81959e-05 -0.0277987)
(-3.45313e-05 6.58594e-05 -0.0278658)
(-3.32409e-05 6.34172e-05 -0.0279273)
(-3.18405e-05 6.08129e-05 -0.0279833)
(-3.02512e-05 5.78397e-05 -0.0280333)
(-2.8864e-05 5.52736e-05 -0.0280784)
(-2.5725e-05 4.90039e-05 -0.0281174)
(-2.72969e-05 5.24809e-05 -0.0281604)
(1.04194e-05 -2.00827e-05 -0.0281703)
(0.00274923 0.00282788 -0.101558)
(0.00113338 0.0011547 -0.104419)
(0.000794561 0.00082541 -0.104235)
(0.000564281 0.000603549 -0.103226)
(0.000406078 0.000445782 -0.101847)
(0.000304363 0.00034228 -0.100278)
(0.000232888 0.00026854 -0.098687)
(0.000179251 0.000212411 -0.0972021)
(0.00013879 0.000169671 -0.0958916)
(0.000108259 0.000137348 -0.0947775)
(8.50309e-05 0.000112921 -0.0938565)
(6.71927e-05 9.44817e-05 -0.0931134)
(5.33769e-05 8.05572e-05 -0.0925285)
(4.25607e-05 7.00176e-05 -0.0920815)
(3.40004e-05 6.20037e-05 -0.0917537)
(2.71669e-05 5.58518e-05 -0.0915279)
(2.16563e-05 5.10613e-05 -0.0913893)
(1.71588e-05 4.72563e-05 -0.0913247)
(1.34486e-05 4.41533e-05 -0.0913229)
(1.03647e-05 4.15422e-05 -0.091374)
(7.78883e-06 3.92706e-05 -0.0914696)
(5.62828e-06 3.72301e-05 -0.0916026)
(3.80424e-06 3.53446e-05 -0.0917665)
(2.25068e-06 3.35637e-05 -0.0919561)
(9.12739e-07 3.18573e-05 -0.0921666)
(-2.60131e-07 3.02096e-05 -0.092394)
(-1.30315e-06 2.86237e-05 -0.0926348)
(-2.23791e-06 2.70657e-05 -0.0928864)
(-3.11363e-06 2.55077e-05 -0.0931468)
(-3.92062e-06 2.38704e-05 -0.093414)
(-4.80307e-06 2.19828e-05 -0.0936858)
(-5.60702e-06 2.00031e-05 -0.0939596)
(-6.8209e-06 1.69485e-05 -0.0942324)
(-8.16311e-06 1.46802e-05 -0.094491)
(-2.00037e-05 -8.93299e-06 -0.0947861)
(0.00207402 0.00191558 -0.0770548)
(0.000595963 0.000471885 -0.0633714)
(0.000231885 0.000208263 -0.053782)
(0.000119911 7.67811e-05 -0.0489737)
(5.82256e-05 3.80622e-05 -0.0464546)
(3.6412e-05 1.88931e-05 -0.0450006)
(3.15251e-05 5.21569e-06 -0.0441132)
(3.20262e-05 -4.5954e-06 -0.0435673)
(3.51969e-05 -1.20752e-05 -0.0432335)
(3.99692e-05 -1.83164e-05 -0.0430411)
(4.56959e-05 -2.38086e-05 -0.0429468)
(5.20806e-05 -2.88901e-05 -0.0429237)
(5.88416e-05 -3.36876e-05 -0.0429541)
(6.56576e-05 -3.81965e-05 -0.0430259)
(7.21941e-05 -4.23397e-05 -0.04313)
(7.81628e-05 -4.60254e-05 -0.0432593)
(8.33545e-05 -4.91814e-05 -0.043408)
(8.76523e-05 -5.17723e-05 -0.0435708)
(9.09978e-05 -5.37858e-05 -0.043743)
(9.33882e-05 -5.52338e-05 -0.0439207)
(9.48686e-05 -5.61517e-05 -0.0441006)
(9.5501e-05 -5.65776e-05 -0.0442797)
(9.53652e-05 -5.65568e-05 -0.0444558)
(9.45561e-05 -5.61443e-05 -0.044627)
(9.31773e-05 -5.5401e-05 -0.0447922)
(9.13227e-05 -5.43807e-05 -0.0449504)
(8.90975e-05 -5.31312e-05 -0.0451014)
(8.65647e-05 -5.16783e-05 -0.0452449)
(8.37406e-05 -5.00086e-05 -0.0453808)
(8.07794e-05 -4.81964e-05 -0.0455091)
(7.74005e-05 -4.61488e-05 -0.0456293)
(7.46482e-05 -4.4437e-05 -0.0457425)
(6.80253e-05 -4.08265e-05 -0.0458482)
(7.19786e-05 -4.26789e-05 -0.0459491)
(-1.04452e-05 4.64859e-06 -0.0460232)
(0.00271592 0.000141484 -0.1022)
(0.00107671 6.33799e-05 -0.105339)
(0.000766045 4.94008e-05 -0.10413)
(0.000515194 3.60441e-05 -0.102294)
(0.000357862 2.7708e-05 -0.1002)
(0.000243732 2.25136e-05 -0.0980902)
(0.000157245 1.91146e-05 -0.0961549)
(9.23426e-05 1.69794e-05 -0.094477)
(4.38703e-05 1.57932e-05 -0.0930671)
(7.86219e-06 1.53207e-05 -0.0918939)
(-1.82798e-05 1.53584e-05 -0.090907)
(-3.59695e-05 1.57151e-05 -0.0900674)
(-4.65449e-05 1.62052e-05 -0.0893234)
(-5.15155e-05 1.66957e-05 -0.0886352)
(-5.22343e-05 1.70842e-05 -0.0879749)
(-4.99428e-05 1.73051e-05 -0.087325)
(-4.57316e-05 1.73345e-05 -0.0866761)
(-4.04918e-05 1.71813e-05 -0.0860244)
(-3.48971e-05 1.68698e-05 -0.0853697)
(-2.94174e-05 1.64356e-05 -0.084714)
(-2.43478e-05 1.5918e-05 -0.0840603)
(-1.98386e-05 1.53482e-05 -0.0834117)
(-1.59415e-05 1.47494e-05 -0.0827715)
(-1.26592e-05 1.41384e-05 -0.0821425)
(-9.95592e-06 1.35311e-05 -0.0815268)
(-7.7735e-06 1.29533e-05 -0.0809263)
(-6.03642e-06 1.24182e-05 -0.0803419)
(-4.67213e-06 1.19615e-05 -0.0797741)
(-3.59227e-06 1.15792e-05 -0.0792229)
(-2.70438e-06 1.12361e-05 -0.078689)
(-1.94841e-06 1.08802e-05 -0.0781725)
(-1.21877e-06 1.03972e-05 -0.0776787)
(-6.77661e-07 9.46756e-06 -0.0772002)
(7.9664e-07 9.09065e-06 -0.0767838)
(1.35912e-05 5.02728e-06 -0.0762853)
(8.89648e-05 0.00271828 -0.102214)
(5.67689e-05 0.0010755 -0.105365)
(5.26352e-05 0.000765039 -0.104165)
(4.39504e-05 0.000514016 -0.10233)
(3.6063e-05 0.000356906 -0.100233)
(3.06363e-05 0.000243075 -0.0981205)
(2.6919e-05 0.000156848 -0.0961818)
(2.42945e-05 9.20963e-05 -0.0945012)
(2.24189e-05 4.36765e-05 -0.0930891)
(2.10738e-05 7.70562e-06 -0.0919143)
(2.01053e-05 -1.83966e-05 -0.0909267)
(1.94832e-05 -3.60658e-05 -0.0900861)
(1.91792e-05 -4.6624e-05 -0.0893413)
(1.90606e-05 -5.15719e-05 -0.0886524)
(1.90335e-05 -5.22604e-05 -0.0879915)
(1.90356e-05 -4.99348e-05 -0.0873413)
(1.90257e-05 -4.56906e-05 -0.086692)