/*--------------------------------*- C++ -*----------------------------------*\
| =========                 |                                                 |
| \\      /  F ield         | OpenFOAM: The Open Source CFD Toolbox           |
|  \\    /   O peration     | Version:  2.4.x                                 |
|   \\  /    A nd           | Web:      www.OpenFOAM.org                      |
|    \\/     M anipulation  |                                                 |
\*---------------------------------------------------------------------------*/
FoamFile
{
    version     2.0;
    format      ascii;
    class       volScalarField;
    location    "9970/coolant";
    object      wallHeatFlux;
}
// * * * * * * * * * * * * * * * * * * * * * * * * * * * * * * * * * * * * * //

dimensions      [1 0 -3 0 0 0 0];

internalField   uniform 0;

boundaryField
{
    inlet
    {
        type            calculated;
        value           nonuniform List<scalar> 
3136
(
-5.23724
-109.982
-1762.33
-602.282
-1840.89
-81.1772
0
-151.88
0
-785.586
-748.925
-864.144
-919.135
-2969.51
-109.982
-193.778
-379.7
-688.697
-4032.67
-125.694
-1880.17
-123.075
-123.075
-890.331
-997.694
-2.61862
-2498.16
-115.219
-3213.05
-3920.07
-1050.07
-146.643
-693.934
-727.976
0
-1073.63
-597.045
-1992.77
-3982.92
-3317.79
-801.298
-60.2282
-128.312
-468.733
-57.6096
-301.141
-314.234
0
-26.1862
-170.21
-400.649
-1183.62
-295.904
-5.23724
-18.3303
-439.928
-599.664
-691.316
-1112.91
0
-154.499
-3474.91
-54.991
0
-528.961
-78.5586
-2678.85
-3024.51
-60.2282
-5.23724
0
-793.442
-735.832
-7.85586
-1170.52
0
-1222.9
-1610.45
-2508.64
-3006.17
-191.159
-44.5165
0
-762.018
-874.619
-209.49
-468.733
0
-1605.21
-1754.47
-117.838
-1895.88
0
-157.117
-348.276
-2.61862
-468.733
-2325.33
0
-2.61862
-20.949
-688.697
-2506.02
-185.922
-502.775
-625.85
-439.928
-81.1772
-222.583
-13.0931
-285.43
-767.255
-2521.73
-20.949
-34.0421
-94.2703
-2835.96
-240.913
-1848.75
-39.2793
-2068.71
-2767.88
-958.415
-555.147
-3548.23
-15.7117
-3393.73
-2762.64
-2396.04
-261.862
-1851.36
-2021.57
0
-1963.96
-2.61862
-2348.9
-775.111
-4302.39
-924.373
-989.838
-81.1772
-73.3213
-75.94
-523.724
-44.5165
-468.733
-1940.4
-7.85586
-288.048
-128.312
0
-2752.17
-2736.46
-1903.74
-4307.63
-4456.89
-1314.55
-1304.07
-269.718
-861.526
-3453.96
-2977.37
-851.051
-7.85586
-1301.45
-199.015
-437.309
-5.23724
-5.23724
-979.364
-5.23724
0
-41.8979
-49.7538
0
-3192.1
-348.276
-358.751
-1644.49
-670.367
-738.451
-1945.63
-3142.34
-1759.71
-921.754
0
-4210.74
-4137.42
-26.1862
-2.61862
-4417.61
-4320.72
-2592.43
-3838.9
-2453.65
-2545.3
-424.216
-1065.78
-2304.39
-492.3
-62.8469
-254.006
-91.6517
-1948.25
-3430.39
-31.4234
-31.4234
0
-154.499
-159.736
-390.174
-1846.13
-167.592
-52.3724
-1848.75
-2862.15
-1298.84
-104.745
-374.463
-1322.4
-780.349
-1304.07
-13.0931
-23.5676
-151.88
-91.6517
-20.949
-204.252
-2304.39
-3893.89
-44.5165
-2228.45
-175.447
-1874.93
-1602.6
-4247.4
-4511.88
-41.8979
-44.5165
-672.985
-4993.71
-219.964
-675.604
0
-4595.68
-1589.5
-1793.75
-251.387
-518.487
-563.003
-1327.64
-1123.39
-15.7117
-1817.32
-102.126
-39.2793
0
-1186.23
-193.778
-1173.14
-1157.43
-185.922
-675.604
-44.5165
-3629.41
-382.318
-1039.59
-3676.54
-3095.21
-2500.78
-78.5586
-3632.03
-2388.18
-1060.54
-2254.63
-898.186
-36.6607
-450.403
-4433.32
-1856.6
-285.43
-1311.93
-3532.52
-7.85586
-193.778
-78.5586
-1270.03
-107.363
-7.85586
0
-4642.81
-1956.11
-439.928
-811.772
-3299.46
-3522.04
-1589.5
-204.252
-2.61862
-7.85586
-4504.03
-243.532
-240.913
-89.0331
0
-2.61862
-54.991
-57.6096
-4045.77
-6745.56
0
-1139.1
-26.1862
-1571.17
-28.8048
-222.583
-1877.55
-1094.58
-2233.68
-1188.85
-1207.18
-4137.42
-4873.25
-3328.27
-3954.12
-377.081
-295.904
-4394.04
-104.745
-1327.64
-13.0931
-738.451
-652.036
-4289.3
-5229.38
-20.949
-1725.67
-1654.97
-13.0931
-13.0931
-418.979
-439.928
0
0
-5200.58
-2817.63
-1068.4
-473.97
-445.165
-10.4745
0
-2.61862
-3943.64
-73.3213
-301.141
-20.949
-934.847
-4469.98
-3673.92
-2655.28
-751.544
-1859.22
-62.8469
-49.7538
-856.289
-4399.28
-4574.73
-2574.1
-2710.27
-31.4234
-5.23724
-827.484
0
-4396.66
-4176.7
-2694.56
-5.23724
-54.991
-479.207
-672.985
-4577.35
-1178.38
-3914.84
0
-633.706
-722.739
-413.742
-306.378
-5.23724
-2181.31
-31.4234
-2.61862
-4907.29
-4585.2
-1720.43
-2073.95
-1649.73
-479.207
-793.442
-104.745
-6148.52
-2835.96
-384.937
-573.478
-3875.56
-762.018
-638.943
-36.6607
-267.099
-801.298
-4171.46
0
-3113.54
-1961.35
-4244.78
-1343.35
-1141.72
-1277.89
-4723.99
-4915.15
-1091.96
-1097.2
-99.5075
-5.23724
-5.23724
-2500.78
-544.673
-1859.22
-327.327
-3244.47
-1264.79
-759.4
-565.622
-735.832
-4443.8
-2110.61
-39.2793
-214.727
0
-89.0331
-1793.75
-1707.34
-335.183
-73.3213
-86.4144
-13.0931
-4650.67
-4477.84
-3291.6
-199.015
-2.61862
-2849.06
-5873.56
-463.496
-5763.58
-1908.97
-701.79
-254.006
-1110.29
-2000.63
-2901.43
-1463.81
-4794.69
-885.093
-1778.04
-2718.13
-3961.97
-235.676
-1877.55
-2142.03
-2660.52
-1023.88
-2396.04
-41.8979
-4464.75
-5533.14
-5030.37
-2.61862
-1031.74
-1123.39
-2385.56
-3362.31
-2.61862
-141.405
-963.652
-5127.26
-4467.36
-1424.53
-4658.52
-4459.51
-144.024
-5590.75
-5195.34
-10.4745
-487.063
-5954.74
-4907.29
-4915.15
-832.721
0
-5569.8
-3084.73
-2283.44
-3137.11
-4344.29
-345.658
-288.048
-4116.47
-343.039
-785.586
0
-246.15
-4145.27
-2058.23
-817.009
-384.937
-3673.92
-280.192
-1450.72
0
-49.7538
-2979.99
-4587.82
-615.376
-246.15
-680.841
-2262.49
-2516.49
0
-405.886
-5389.12
-185.922
-2262.49
-2.61862
-2194.4
-6368.48
-366.607
-5129.88
-2.61862
-3236.61
-3210.43
-327.327
-1170.52
-1398.34
-348.276
-5114.16
-293.285
-1029.12
0
-227.82
-251.387
-1076.25
-2.61862
-282.811
-3024.51
-23.5676
-463.496
-371.844
-5.23724
-104.745
-130.931
-2503.4
-4346.91
-7.85586
-7.85586
-243.532
-4519.74
-141.405
-2128.94
-4553.78
-1296.22
-2170.84
-2409.13
-2854.3
-188.541
-450.403
-18.3303
-1039.59
-4284.06
-159.736
-4365.24
-94.2703
-288.048
-13.0931
-13.0931
-2749.55
-3385.87
-3181.62
-5543.62
-4158.37
-162.354
-5038.22
-5475.53
-7.85586
-5789.77
-1175.76
-2825.49
-3865.08
-2.61862
-6117.09
-18.3303
-2786.21
-4799.93
-5831.67
-1657.59
-2592.43
-644.18
-167.592
-2.61862
-411.123
-7.85586
-754.162
-5263.42
-5784.53
-5575.04
-4509.26
-1547.6
-570.859
0
-1440.24
-2746.93
-3016.65
-358.751
-130.931
-1209.8
-2238.92
-2162.98
-13.0931
-1544.99
-2.61862
-23.5676
-3215.66
-117.838
-1369.54
-31.4234
-230.439
-2867.39
-5365.55
-1136.48
-1432.38
-2.61862
-2.61862
-2055.62
0
-62.8469
0
-2.61862
-5.23724
-20.949
-18.3303
-439.928
-15.7117
-15.7117
-2644.81
-301.141
-5.23724
-5.23724
-199.015
-1652.35
0
-3223.52
-628.469
-47.1351
-604.901
-641.562
-1429.77
-2893.57
-1348.59
-49.7538
-31.4234
0
-3288.99
-751.544
-60.2282
-1712.58
-2199.64
-1814.7
-3388.49
-2320.1
-1623.54
-20.949
-20.949
-3299.46
-178.066
-1332.88
-1366.92
0
-10.4745
-2516.49
-2568.87
-458.258
-1228.13
-209.49
-2382.94
-2147.27
-15.7117
-41.8979
-47.1351
-3707.96
-96.8889
-164.973
-280.192
-1788.52
-1042.21
-1084.11
-3184.24
-13.0931
-10.4745
-39.2793
0
-437.309
-1555.46
-2660.52
-4498.79
-4451.65
-3236.61
-138.787
-369.225
-15.7117
-15.7117
0
-2938.09
-3540.37
-712.264
-31.4234
-34.0421
-261.862
-2911.9
-188.541
-115.219
-7.85586
-473.97
-515.868
-13.0931
-3357.07
0
-78.5586
-1702.1
-1576.41
-1228.13
-1319.78
0
-86.4144
-405.886
-445.165
-115.219
-162.354
0
-2.61862
-62.8469
-1387.87
-86.4144
-99.5075
-678.222
-510.631
-515.868
-1579.03
-1277.89
-5.23724
-5.23724
-13.0931
-2456.26
-1757.09
-1744
-5.23724
-827.484
-7.85586
-5.23724
-712.264
-2707.65
-2663.14
-31.4234
-594.427
0
-57.6096
-65.4655
-112.601
-416.36
-1361.68
-971.508
-1225.51
-3783.9
-256.625
-282.811
-5.23724
-109.982
-1764.95
-602.282
-1846.13
-81.1772
0
-151.88
0
-788.204
-751.544
-866.763
-919.135
-2974.75
-109.982
-193.778
-379.7
-691.316
-4040.53
-125.694
-1882.79
-123.075
-123.075
-892.949
-1002.93
-2.61862
-2506.02
-115.219
-3220.9
-3927.93
-1052.68
-146.643
-693.934
-730.595
0
-1078.87
-597.045
-1998.01
-3993.39
-3325.65
-801.298
-60.2282
-128.312
-468.733
-57.6096
-303.76
-314.234
0
-26.1862
-170.21
-400.649
-1186.23
-295.904
-5.23724
-18.3303
-442.547
-599.664
-693.934
-1115.53
0
-154.499
-3480.15
-54.991
0
-531.58
-78.5586
-2684.08
-3029.74
-60.2282
-5.23724
0
-796.06
-738.451
-7.85586
-1173.14
0
-1225.51
-1615.69
-2513.87
-3016.65
-191.159
-44.5165
0
-762.018
-877.237
-209.49
-468.733
0
-1610.45
-1757.09
-117.838
-1898.5
0
-157.117
-350.895
-2.61862
-468.733
-2327.95
0
-2.61862
-20.949
-691.316
-2511.26
-188.541
-505.394
-625.85
-439.928
-81.1772
-222.583
-15.7117
-288.048
-769.874
-2524.35
-20.949
-34.0421
-94.2703
-2841.2
-240.913
-1853.98
-39.2793
-2073.95
-2773.12
-961.033
-555.147
-3553.47
-15.7117
-3404.21
-2767.88
-2401.27
-264.481
-1856.6
-2024.19
0
-1969.2
-2.61862
-2354.14
-777.73
-4310.25
-926.991
-989.838
-81.1772
-73.3213
-75.94
-523.724
-44.5165
-468.733
-1943.02
-7.85586
-290.667
-128.312
0
-2762.64
-2741.69
-1906.35
-4315.48
-4472.6
-1317.17
-1304.07
-269.718
-864.144
-3461.81
-2982.61
-853.67
-7.85586
-1304.07
-199.015
-437.309
-5.23724
-5.23724
-981.982
-5.23724
0
-41.8979
-49.7538
0
-3197.33
-348.276
-358.751
-1647.11
-672.985
-741.069
-1948.25
-3147.58
-1762.33
-921.754
0
-4218.6
-4145.27
-26.1862
-2.61862
-4425.47
-4328.58
-2600.29
-3849.37
-2458.88
-2547.92
-424.216
-1068.4
-2309.62
-492.3
-62.8469
-254.006
-91.6517
-1953.49
-3438.25
-31.4234
-31.4234
0
-154.499
-159.736
-392.793
-1848.75
-167.592
-52.3724
-1851.36
-2867.39
-1301.45
-104.745
-374.463
-1325.02
-782.967
-1306.69
-13.0931
-23.5676
-151.88
-91.6517
-20.949
-204.252
-2312.24
-3901.74
-44.5165
-2233.68
-175.447
-1877.55
-1605.21
-4252.64
-4527.59
-41.8979
-44.5165
-675.604
-5001.56
-222.583
-678.222
0
-4606.15
-1594.74
-1796.37
-251.387
-518.487
-563.003
-1332.88
-1123.39
-15.7117
-1819.94
-102.126
-39.2793
0
-1188.85
-193.778
-1178.38
-1160.05
-185.922
-675.604
-44.5165
-3637.26
-382.318
-1042.21
-3684.4
-3100.45
-2506.02
-78.5586
-3637.26
-2393.42
-1063.16
-2259.87
-898.186
-36.6607
-450.403
-4443.8
-1861.84
-288.048
-1314.55
-3540.37
-7.85586
-193.778
-81.1772
-1270.03
-107.363
-7.85586
0
-4653.29
-1961.35
-439.928
-811.772
-3307.32
-3527.28
-1592.12
-204.252
-2.61862
-7.85586
-4511.88
-243.532
-240.913
-89.0331
0
-2.61862
-57.6096
-57.6096
-4053.62
-6761.28
0
-1139.1
-26.1862
-1573.79
-28.8048
-225.201
-1880.17
-1097.2
-2238.92
-1188.85
-1209.8
-4142.66
-4883.73
-3336.12
-3961.97
-377.081
-295.904
-4401.9
-104.745
-1330.26
-13.0931
-741.069
-652.036
-4297.15
-5239.86
-20.949
-1730.91
-1660.2
-13.0931
-13.0931
-418.979
-439.928
0
0
-5211.05
-2822.87
-1071.02
-473.97
-445.165
-10.4745
0
-2.61862
-3951.5
-73.3213
-301.141
-20.949
-934.847
-4480.46
-3681.78
-2660.52
-751.544
-1861.84
-62.8469
-49.7538
-858.907
-4407.14
-4593.06
-2579.34
-2720.75
-31.4234
-5.23724
-827.484
0
-4407.14
-4187.17
-2699.8
-5.23724
-54.991
-481.826
-675.604
-4587.82
-1181
-3922.69
0
-633.706
-725.358
-413.742
-306.378
-5.23724
-2186.55
-31.4234
-2.61862
-4917.77
-4593.06
-1723.05
-2081.8
-1652.35
-481.826
-796.06
-104.745
-6161.61
-2841.2
-387.556
-573.478
-3883.41
-764.637
-638.943
-36.6607
-267.099
-803.916
-4181.94
0
-3118.78
-1966.58
-4255.26
-1345.97
-1144.34
-1280.5
-4739.7
-4923
-1094.58
-1099.82
-99.5075
-5.23724
-5.23724
-2506.02
-544.673
-1864.46
-329.946
-3249.71
-1264.79
-762.018
-565.622
-738.451
-4451.65
-2113.23
-39.2793
-214.727
0
-89.0331
-1796.37
-1712.58
-337.802
-73.3213
-86.4144
-13.0931
-4658.52
-4493.55
-3296.84
-199.015
-2.61862
-2854.3
-5884.04
-463.496
-5776.67
-1911.59
-704.409
-254.006
-1112.91
-2005.86
-2906.67
-1469.05
-4802.55
-887.712
-1780.66
-2720.75
-3969.83
-235.676
-1882.79
-2144.65
-2665.75
-1026.5
-2398.66
-44.5165
-4472.6
-5543.62
-5038.22
-2.61862
-1034.35
-1123.39
-2393.42
-3370.16
-2.61862
-141.405
-963.652
-5135.11
-4480.46
-1427.15
-4666.38
-4472.6
-144.024
-5601.23
-5213.67
-10.4745
-489.682
-5967.83
-4915.15
-4925.62
-832.721
0
-5580.28
-3089.97
-2288.67
-3144.96
-4354.76
-348.276
-288.048
-4126.94
-345.658
-788.204
0
-246.15
-4155.75
-2060.85
-819.628
-387.556
-3679.16
-280.192
-1453.33
0
-49.7538
-2985.23
-4603.53
-617.994
-246.15
-683.46
-2267.72
-2521.73
0
-405.886
-5399.59
-188.541
-2267.72
-2.61862
-2197.02
-6381.58
-366.607
-5140.35
-2.61862
-3241.85
-3215.66
-327.327
-1173.14
-1400.96
-348.276
-5124.64
-293.285
-1031.74
0
-227.82
-251.387
-1078.87
-2.61862
-282.811
-3029.74
-23.5676
-463.496
-371.844
-5.23724
-104.745
-133.55
-2508.64
-4360
-7.85586
-7.85586
-243.532
-4530.21
-141.405
-2131.56
-4561.63
-1298.84
-2176.07
-2411.75
-2859.53
-188.541
-450.403
-18.3303
-1042.21
-4294.54
-159.736
-4375.71
-94.2703
-288.048
-13.0931
-13.0931
-2754.79
-3393.73
-3186.86
-5554.09
-4168.84
-164.973
-5046.08
-5493.86
-7.85586
-5802.86
-1178.38
-2833.35
-3872.94
-2.61862
-6132.81
-18.3303
-2791.45
-4807.79
-5844.76
-1662.82
-2597.67
-646.799
-167.592
-2.61862
-411.123
-7.85586
-754.162
-5279.14
-5792.39
-5582.9
-4522.36
-1552.84
-570.859
0
-1442.86
-2757.41
-3021.89
-361.369
-130.931
-1212.42
-2244.16
-2168.22
-13.0931
-1550.22
-2.61862
-23.5676
-3223.52
-117.838
-1372.16
-31.4234
-233.057
-2872.63
-5378.64
-1139.1
-1435
-2.61862
-2.61862
-2058.23
0
-62.8469
0
-2.61862
-5.23724
-20.949
-18.3303
-442.547
-15.7117
-15.7117
-2650.04
-301.141
-5.23724
-5.23724
-199.015
-1657.59
0
-3228.76
-631.087
-47.1351
-604.901
-641.562
-1432.38
-2898.81
-1351.21
-49.7538
-31.4234
0
-3296.84
-754.162
-60.2282
-1715.2
-2204.88
-1817.32
-3393.73
-2327.95
-1626.16
-20.949
-23.5676
-3309.93
-178.066
-1335.5
-1372.16
0
-10.4745
-2521.73
-2579.34
-458.258
-1230.75
-209.49
-2390.8
-2149.89
-15.7117
-41.8979
-47.1351
-3715.82
-96.8889
-164.973
-282.811
-1793.75
-1044.83
-1089.35
-3192.1
-13.0931
-10.4745
-39.2793
0
-437.309
-1558.08
-2668.37
-4514.5
-4459.51
-3244.47
-138.787
-371.844
-15.7117
-15.7117
0
-2945.95
-3545.61
-712.264
-31.4234
-34.0421
-261.862
-2917.14
-188.541
-115.219
-7.85586
-476.589
-515.868
-13.0931
-3362.31
0
-78.5586
-1704.72
-1581.65
-1230.75
-1322.4
0
-86.4144
-405.886
-447.784
-115.219
-162.354
0
-2.61862
-62.8469
-1390.49
-86.4144
-102.126
-678.222
-513.249
-515.868
-1584.26
-1283.12
-5.23724
-5.23724
-13.0931
-2461.5
-1764.95
-1746.62
-5.23724
-830.102
-7.85586
-5.23724
-712.264
-2718.13
-2668.37
-31.4234
-594.427
0
-57.6096
-65.4655
-112.601
-416.36
-1364.3
-974.126
-1228.13
-3791.76
-256.625
-282.811
-5.23724
-109.982
-1770.19
-599.664
-1840.89
-81.1772
0
-151.88
0
-785.586
-754.162
-864.144
-921.754
-2969.51
-109.982
-193.778
-379.7
-691.316
-4009.11
-123.075
-1877.55
-123.075
-123.075
-895.568
-1000.31
-2.61862
-2503.4
-115.219
-3210.43
-3901.74
-1055.3
-146.643
-696.553
-727.976
0
-1073.63
-597.045
-1992.77
-3985.54
-3333.5
-796.06
-60.2282
-128.312
-468.733
-57.6096
-301.141
-316.853
0
-26.1862
-170.21
-403.267
-1186.23
-293.285
-5.23724
-18.3303
-439.928
-599.664
-696.553
-1107.68
0
-154.499
-3488
-54.991
0
-526.342
-78.5586
-2689.32
-3016.65
-60.2282
-5.23724
0
-793.442
-735.832
-7.85586
-1165.29
0
-1225.51
-1613.07
-2495.54
-3011.41
-191.159
-44.5165
0
-756.781
-869.382
-206.871
-466.114
0
-1607.83
-1764.95
-117.838
-1893.26
0
-157.117
-348.276
-2.61862
-468.733
-2322.72
0
-2.61862
-20.949
-688.697
-2513.87
-188.541
-505.394
-628.469
-437.309
-81.1772
-222.583
-13.0931
-285.43
-767.255
-2532.2
-20.949
-34.0421
-94.2703
-2830.73
-240.913
-1848.75
-39.2793
-2058.23
-2765.26
-953.177
-549.91
-3556.09
-15.7117
-3398.97
-2778.36
-2382.94
-261.862
-1859.22
-2026.81
0
-1953.49
-2.61862
-2335.81
-775.111
-4273.59
-929.61
-984.601
-81.1772
-73.3213
-75.94
-523.724
-44.5165
-466.114
-1940.4
-7.85586
-288.048
-128.312
0
-2752.17
-2752.17
-1893.26
-4331.2
-4459.51
-1309.31
-1301.45
-267.099
-858.907
-3433.01
-2985.23
-851.051
-7.85586
-1298.84
-196.396
-434.691
-5.23724
-5.23724
-974.126
-5.23724
0
-41.8979
-49.7538
0
-3189.48
-348.276
-358.751
-1634.02
-670.367
-743.688
-1935.16
-3142.34
-1764.95
-919.135
0
-4202.88
-4119.09
-26.1862
-2.61862
-4414.99
-4341.67
-2597.67
-3836.28
-2440.55
-2555.77
-421.598
-1060.54
-2293.91
-492.3
-62.8469
-251.387
-91.6517
-1943.02
-3422.54
-31.4234
-31.4234
0
-154.499
-159.736
-390.174
-1835.65
-167.592
-52.3724
-1851.36
-2862.15
-1290.98
-104.745
-371.844
-1317.17
-777.73
-1296.22
-13.0931
-23.5676
-154.499
-91.6517
-20.949
-201.634
-2299.15
-3880.79
-44.5165
-2215.35
-175.447
-1877.55
-1594.74
-4268.35
-4519.74
-41.8979
-44.5165
-675.604
-4991.09
-219.964
-675.604
0
-4600.91
-1592.12
-1801.61
-248.769
-521.105
-563.003
-1330.26
-1128.62
-15.7117
-1814.7
-102.126
-39.2793
0
-1186.23
-193.778
-1173.14
-1162.67
-185.922
-672.985
-44.5165
-3611.08
-379.7
-1042.21
-3684.4
-3108.3
-2490.31
-78.5586
-3613.69
-2375.09
-1055.3
-2249.39
-892.949
-36.6607
-450.403
-4409.75
-1848.75
-285.43
-1306.69
-3545.61
-7.85586
-191.159
-78.5586
-1270.03
-107.363
-7.85586
0
-4640.19
-1956.11
-439.928
-809.153
-3286.37
-3503.71
-1597.36
-201.634
-2.61862
-7.85586
-4504.03
-243.532
-240.913
-89.0331
0
-2.61862
-54.991
-57.6096
-4043.15
-6711.52
0
-1139.1
-26.1862
-1576.41
-28.8048
-222.583
-1869.69
-1091.96
-2225.83
-1186.23
-1201.95
-4153.13
-4852.3
-3325.65
-3930.55
-374.463
-293.285
-4388.81
-104.745
-1327.64
-13.0931
-735.832
-646.799
-4281.44
-5205.82
-20.949
-1725.67
-1665.44
-13.0931
-13.0931
-421.598
-439.928
0
0
-5208.43
-2804.54
-1063.16
-473.97
-447.784
-10.4745
0
-2.61862
-3943.64
-73.3213
-301.141
-20.949
-937.466
-4441.18
-3660.83
-2655.28
-746.307
-1848.75
-62.8469
-49.7538
-858.907
-4422.85
-4579.97
-2587.2
-2712.89
-31.4234
-5.23724
-824.865
0
-4388.81
-4166.22
-2702.42
-5.23724
-54.991
-479.207
-670.367
-4561.63
-1178.38
-3904.36
0
-631.087
-722.739
-413.742
-306.378
-5.23724
-2170.84
-31.4234
-2.61862
-4883.73
-4600.91
-1728.29
-2076.57
-1649.73
-476.589
-790.823
-104.745
-6117.09
-2849.06
-384.937
-568.24
-3854.61
-762.018
-641.562
-36.6607
-267.099
-798.679
-4160.99
0
-3110.92
-1963.96
-4229.07
-1343.35
-1144.34
-1283.12
-4729.23
-4938.72
-1091.96
-1102.44
-96.8889
-5.23724
-5.23724
-2495.54
-542.054
-1853.98
-327.327
-3223.52
-1267.41
-756.781
-563.003
-741.069
-4456.89
-2100.13
-39.2793
-212.108
0
-86.4144
-1788.52
-1704.72
-335.183
-73.3213
-86.4144
-13.0931
-4674.24
-4485.69
-3294.22
-196.396
-2.61862
-2862.15
-5842.14
-460.877
-5737.39
-1911.59
-699.171
-254.006
-1107.68
-1992.77
-2904.05
-1458.57
-4797.31
-879.856
-1770.19
-2723.36
-3943.64
-235.676
-1880.17
-2152.51
-2660.52
-1026.5
-2398.66
-41.8979
-4464.75
-5541
-5038.22
-2.61862
-1031.74
-1128.62
-2390.8
-3380.64
-2.61862
-141.405
-958.415
-5124.64
-4462.13
-1416.67
-4679.47
-4459.51
-144.024
-5616.94
-5205.82
-10.4745
-489.682
-5925.94
-4920.39
-4930.86
-827.484
0
-5575.04
-3087.35
-2280.82
-3124.01
-4323.34
-345.658
-288.048
-4111.23
-345.658
-790.823
0
-246.15
-4124.33
-2063.47
-817.009
-387.556
-3671.3
-280.192
-1442.86
0
-49.7538
-2995.7
-4598.3
-615.376
-246.15
-683.46
-2254.63
-2506.02
0
-403.267
-5360.31
-188.541
-2257.25
-2.61862
-2189.17
-6337.06
-366.607
-5095.83
-2.61862
-3239.23
-3223.52
-324.709
-1167.9
-1395.72
-348.276
-5085.36
-293.285
-1023.88
0
-227.82
-251.387
-1068.4
-2.61862
-282.811
-3008.79
-23.5676
-463.496
-371.844
-5.23724
-104.745
-133.55
-2487.69
-4341.67
-7.85586
-7.85586
-240.913
-4496.17
-141.405
-2126.32
-4566.87
-1296.22
-2168.22
-2396.04
-2835.96
-188.541
-447.784
-18.3303
-1039.59
-4265.73
-159.736
-4344.29
-94.2703
-285.43
-13.0931
-13.0931
-2736.46
-3367.54
-3181.62
-5543.62
-4150.51
-164.973
-5061.79
-5486.01
-7.85586
-5760.96
-1175.76
-2828.11
-3883.41
-2.61862
-6088.29
-18.3303
-2791.45
-4776.36
-5802.86
-1660.2
-2605.53
-641.562
-167.592
-2.61862
-408.505
-7.85586
-754.162
-5271.28
-5810.72
-5601.23
-4514.5
-1539.75
-568.24
0
-1432.38
-2752.17
-3032.36
-361.369
-128.312
-1204.56
-2233.68
-2157.74
-13.0931
-1537.13
-2.61862
-23.5676
-3202.57
-115.219
-1361.68
-31.4234
-230.439
-2856.91
-5344.6
-1131.24
-1427.15
-2.61862
-2.61862
-2045.14
0
-62.8469
0
-2.61862
-5.23724
-20.949
-18.3303
-439.928
-15.7117
-15.7117
-2631.71
-298.523
-5.23724
-5.23724
-196.396
-1644.49
0
-3220.9
-625.85
-47.1351
-604.901
-644.18
-1424.53
-2898.81
-1343.35
-49.7538
-31.4234
0
-3270.66
-751.544
-60.2282
-1715.2
-2210.11
-1804.23
-3404.21
-2325.33
-1631.4
-20.949
-23.5676
-3296.84
-178.066
-1338.11
-1366.92
0
-10.4745
-2529.59
-2571.48
-455.64
-1225.51
-209.49
-2382.94
-2155.12
-15.7117
-44.5165
-47.1351
-3718.44
-96.8889
-164.973
-282.811
-1788.52
-1047.45
-1086.73
-3168.53
-13.0931
-10.4745
-39.2793
0
-437.309
-1552.84
-2665.75
-4498.79
-4475.22
-3220.9
-138.787
-369.225
-15.7117
-15.7117
0
-2943.33
-3556.09
-714.883
-31.4234
-34.0421
-261.862
-2927.62
-188.541
-115.219
-7.85586
-471.351
-515.868
-13.0931
-3338.74
0
-78.5586
-1707.34
-1573.79
-1235.99
-1319.78
0
-86.4144
-405.886
-447.784
-115.219
-159.736
0
-2.61862
-62.8469
-1393.11
-86.4144
-102.126
-675.604
-513.249
-518.487
-1581.65
-1280.5
-5.23724
-5.23724
-13.0931
-2443.17
-1759.71
-1754.47
-5.23724
-827.484
-7.85586
-5.23724
-707.027
-2710.27
-2678.85
-31.4234
-591.808
0
-57.6096
-65.4655
-112.601
-413.742
-1369.54
-971.508
-1228.13
-3762.96
-256.625
-282.811
-5.23724
-109.982
-1762.33
-602.282
-1838.27
-81.1772
0
-151.88
0
-782.967
-751.544
-861.526
-919.135
-2966.9
-107.363
-193.778
-379.7
-688.697
-4024.82
-125.694
-1877.55
-123.075
-123.075
-892.949
-997.694
-2.61862
-2492.93
-115.219
-3207.81
-3912.22
-1050.07
-146.643
-693.934
-727.976
0
-1073.63
-594.427
-1990.15
-3975.06
-3317.79
-798.679
-60.2282
-128.312
-468.733
-57.6096
-301.141
-314.234
0
-26.1862
-167.592
-400.649
-1183.62
-295.904
-5.23724
-18.3303
-439.928
-599.664
-691.316
-1112.91
0
-154.499
-3472.29
-54.991
0
-528.961
-78.5586
-2676.23
-3019.27
-60.2282
-5.23724
0
-793.442
-735.832
-7.85586
-1167.9
0
-1222.9
-1607.83
-2506.02
-3000.94
-191.159
-44.5165
0
-759.4
-872
-206.871
-466.114
0
-1602.6
-1757.09
-117.838
-1893.26
0
-157.117
-348.276
-2.61862
-468.733
-2320.1
0
-2.61862
-20.949
-688.697
-2503.4
-185.922
-502.775
-625.85
-439.928
-81.1772
-222.583
-13.0931
-285.43
-767.255
-2521.73
-20.949
-34.0421
-94.2703
-2830.73
-240.913
-1846.13
-39.2793
-2066.09
-2765.26
-955.796
-552.529
-3542.99
-15.7117
-3388.49
-2762.64
-2393.42
-261.862
-1851.36
-2018.96
0
-1961.35
-2.61862
-2343.66
-775.111
-4294.54
-924.373
-987.219
-81.1772
-73.3213
-75.94
-521.105
-44.5165
-466.114
-1937.78
-7.85586
-288.048
-128.312
0
-2746.93
-2741.69
-1898.5
-4315.48
-4449.03
-1311.93
-1301.45
-267.099
-861.526
-3446.1
-2974.75
-851.051
-7.85586
-1298.84
-199.015
-437.309
-5.23724
-5.23724
-976.745
-5.23724
0
-41.8979
-49.7538
0
-3186.86
-345.658
-358.751
-1641.87
-667.748
-738.451
-1940.4
-3137.11
-1759.71
-919.135
0
-4202.88
-4129.56
-26.1862
-2.61862
-4409.75
-4320.72
-2587.2
-3831.04
-2448.41
-2542.68
-424.216
-1063.16
-2301.77
-489.682
-62.8469
-251.387
-91.6517
-1945.63
-3425.15
-31.4234
-31.4234
0
-154.499
-159.736
-390.174
-1840.89
-167.592
-52.3724
-1846.13
-2859.53
-1296.22
-104.745
-371.844
-1319.78
-777.73
-1301.45
-13.0931
-23.5676
-151.88
-91.6517
-20.949
-204.252
-2301.77
-3888.65
-44.5165
-2225.83
-175.447
-1872.31
-1599.98
-4250.02
-4504.03
-41.8979
-44.5165
-672.985
-4985.85
-219.964
-675.604
0
-4590.44
-1586.88
-1793.75
-251.387
-518.487
-560.385
-1325.02
-1123.39
-15.7117
-1812.08
-102.126
-39.2793
0
-1183.62
-193.778
-1170.52
-1160.05
-185.922
-672.985
-44.5165
-3624.17
-379.7
-1039.59
-3673.92
-3092.59
-2495.54
-78.5586
-3624.17
-2382.94
-1057.92
-2252.01
-895.568
-36.6607
-450.403
-4425.47
-1853.98
-285.43
-1309.31
-3529.9
-7.85586
-193.778
-78.5586
-1267.41
-107.363
-7.85586
0
-4637.57
-1953.49
-439.928
-809.153
-3294.22
-3514.19
-1589.5
-201.634
-2.61862
-7.85586
-4498.79
-243.532
-240.913
-89.0331
0
-2.61862
-54.991
-57.6096
-4040.53
-6735.09
0
-1136.48
-26.1862
-1568.55
-28.8048
-222.583
-1872.31
-1094.58
-2228.45
-1186.23
-1204.56
-4134.8
-4865.39
-3323.03
-3948.88
-377.081
-293.285
-4386.19
-104.745
-1327.64
-13.0931
-738.451
-649.418
-4281.44
-5221.53
-20.949
-1720.43
-1657.59
-13.0931
-13.0931
-418.979
-437.309
0
0
-5195.34
-2812.4
-1065.78
-471.351
-445.165
-10.4745
0
-2.61862
-3938.4
-73.3213
-301.141
-20.949
-934.847
-4462.13
-3666.07
-2652.66
-748.925
-1856.6
-62.8469
-49.7538
-856.289
-4404.52
-4566.87
-2576.72
-2705.03
-31.4234
-5.23724
-824.865
0
-4388.81
-4171.46
-2691.94
-5.23724
-54.991
-479.207
-672.985
-4569.49
-1178.38
-3909.6
0
-631.087
-722.739
-411.123
-306.378
-5.23724
-2178.69
-31.4234
-2.61862
-4899.44
-4582.58
-1720.43
-2071.33
-1647.11
-479.207
-793.442
-104.745
-6138.04
-2835.96
-384.937
-570.859
-3867.7
-759.4
-638.943
-36.6607
-267.099
-801.298
-4163.6
0
-3108.3
-1956.11
-4236.93
-1343.35
-1139.1
-1277.89
-4713.51
-4917.77
-1089.35
-1097.2
-99.5075
-5.23724
-5.23724
-2495.54
-544.673
-1856.6
-327.327
-3236.61
-1262.17
-756.781
-563.003
-738.451
-4441.18
-2105.37
-39.2793
-212.108
0
-89.0331
-1791.14
-1704.72
-335.183
-73.3213
-86.4144
-13.0931
-4653.29
-4469.98
-3286.37
-199.015
-2.61862
-2846.44
-5863.09
-463.496
-5753.11
-1906.35
-701.79
-251.387
-1107.68
-1998.01
-2898.81
-1461.19
-4789.45
-882.475
-1775.42
-2715.51
-3954.12
-235.676
-1874.93
-2142.03
-2655.28
-1023.88
-2393.42
-41.8979
-4456.89
-5525.29
-5025.13
-2.61862
-1029.12
-1123.39
-2382.94
-3362.31
-2.61862
-141.405
-961.033
-5119.4
-4459.51
-1421.91
-4655.91
-4451.65
-144.024
-5590.75
-5187.48
-10.4745
-487.063
-5944.27
-4902.06
-4912.53
-830.102
0
-5561.95
-3082.11
-2278.2
-3131.87
-4336.43
-345.658
-288.048
-4108.61
-343.039
-785.586
0
-246.15
-4140.04
-2055.62
-814.391
-384.937
-3668.69
-280.192
-1448.1
0
-49.7538
-2982.61
-4579.97
-615.376
-246.15
-680.841
-2259.87
-2513.87
0
-405.886
-5378.64
-185.922
-2259.87
-2.61862
-2189.17
-6358.01
-363.988
-5119.4
-2.61862
-3233.99
-3207.81
-327.327
-1167.9
-1395.72
-348.276
-5106.31
-293.285
-1026.5
0
-225.201
-251.387
-1073.63
-2.61862
-280.192
-3019.27
-23.5676
-463.496
-369.225
-5.23724
-104.745
-130.931
-2500.78
-4341.67
-7.85586
-7.85586
-240.913
-4511.88
-141.405
-2123.7
-4551.16
-1293.6
-2168.22
-2403.89
-2849.06
-188.541
-450.403
-18.3303
-1036.97
-4278.82
-159.736
-4357.38
-94.2703
-285.43
-13.0931
-13.0931
-2744.31
-3380.64
-3176.39
-5535.76
-4150.51
-162.354
-5038.22
-5465.06
-7.85586
-5779.29
-1173.14
-2820.25
-3865.08
-2.61862
-6106.62
-18.3303
-2783.59
-4792.07
-5821.19
-1654.97
-2592.43
-644.18
-167.592
-2.61862
-408.505
-7.85586
-751.544
-5252.95
-5784.53
-5572.42
-4501.41
-1544.99
-568.24
0
-1437.62
-2744.31
-3019.27
-358.751
-128.312
-1207.18
-2233.68
-2157.74
-13.0931
-1542.37
-2.61862
-23.5676
-3210.43
-117.838
-1366.92
-31.4234
-230.439
-2862.15
-5355.08
-1133.86
-1429.77
-2.61862
-2.61862
-2050.38
0
-62.8469
0
-2.61862
-5.23724
-18.3303
-18.3303
-439.928
-15.7117
-15.7117
-2639.57
-298.523
-5.23724
-5.23724
-199.015
-1649.73
0
-3218.28
-628.469
-47.1351
-602.282
-641.562
-1427.15
-2890.96
-1345.97
-49.7538
-31.4234
0
-3283.75
-751.544
-60.2282
-1712.58
-2202.26
-1809.47
-3391.11
-2317.48
-1623.54
-20.949
-23.5676
-3294.22
-178.066
-1332.88
-1364.3
0
-10.4745
-2519.11
-2566.25
-455.64
-1225.51
-209.49
-2380.32
-2147.27
-15.7117
-41.8979
-47.1351
-3705.35
-96.8889
-164.973
-280.192
-1785.9
-1042.21
-1084.11
-3179
-13.0931
-10.4745
-39.2793
0
-437.309
-1552.84
-2655.28
-4490.93
-4459.51
-3231.38
-138.787
-369.225
-15.7117
-15.7117
0
-2932.85
-3540.37
-712.264
-31.4234
-34.0421
-261.862
-2914.52
-188.541
-115.219
-7.85586
-473.97
-515.868
-13.0931
-3349.21
0
-78.5586
-1699.48
-1573.79
-1230.75
-1317.17
0
-86.4144
-403.267
-445.165
-115.219
-159.736
0
-2.61862
-62.8469
-1387.87
-86.4144
-99.5075
-678.222
-510.631
-515.868
-1576.41
-1275.27
-5.23724
-5.23724
-13.0931
-2453.65
-1754.47
-1746.62
-5.23724
-827.484
-7.85586
-5.23724
-709.646
-2705.03
-2668.37
-31.4234
-591.808
0
-57.6096
-65.4655
-112.601
-413.742
-1361.68
-968.889
-1222.9
-3776.05
-256.625
-282.811
)
;
    }
    parede
    {
        type            symmetry;
    }
    outlet
    {
        type            calculated;
        value           uniform 0;
    }
    coolant_to_cladding
    {
        type            calculated;
        value           nonuniform List<scalar> 
16520
(
22565.9
25284.8
32507.1
40769.4
49062.5
57038.4
64569.2
71580
78031.2
83887.5
89126.9
93727.3
97680
100963
103576
105506
106749
107304
107167
106326
104783
102545
99605.7
95979.1
91669.5
86703.3
81098.2
74889.3
68090
60731.1
52869.8
44669.2
36503.9
29268.3
25029.2
34844.8
39459.7
49405.6
61051.7
72928.2
84455.9
95410.7
105674
115159
123779
131458
138103
143639
148017
151194
153162
153928
153504
151941
149275
145545
140806
135101
128481
121007
112730
103712
94034.4
83739.7
72915.7
61655.8
50140.5
38805.8
28785.1
22675.6
34850.5
39394.1
49180.7
60756.3
72610.5
84136.5
95086.9
105338
114796
123382
131015
137626
143135
147487
150650
152606
153367
152946
151386
148731
145010
140281
134592
127994
120553
112320
103363
93731.3
83474.2
72641.4
61319.6
49731.7
38378.9
28468.5
22612.6
30976.3
36367.6
46153.2
57257.7
68494
79371.5
89668.8
99264.5
108095
116114
123278
129550
134888
139262
142622
144964
146262
146510
145708
143867
141002
137151
132330
126585
119949
112474
104213
95213.1
85522.5
75214.6
64379.2
53216.8
42196.8
32437.6
26471.2
29301.5
35146.9
44783
55533
66367.2
76841.1
86772.1
96038.5
104584
112358
119317
125420
130614
134873
138163
140452
141725
141977
141210
139432
136666
132931
128265
122696
116270
109021
101018
92299.1
82906.4
72909.9
62393.9
51550.3
40833.1
31342
25557.5
32561
37159.1
46624.2
57590.8
68802.8
79652.6
89941.5
99540.9
108398
116467
123700
130080
135578
140165
143834
146568
148356
149180
149028
147900
145774
142660
138552
133463
127416
120434
112558
103818
94265
83941.1
72939.4
61476.2
50059.7
39893.5
33782.1
31642.1
37288.2
47042.9
58167
69464.3
80385.7
90728.7
100370
109259
117353
124610
131008
136516
141114
144792
147536
149336
150171
150028
148906
146790
143675
139571
134474
128417
121417
113516
104745
95148.7
84776.1
73731
62216.2
50736.1
40501.9
34302
30260.2
35415.6
44655.6
55081
65680.8
75961.8
85709.8
94815.3
103213
110859
117708
123731
128906
133220
136652
139192
140846
141588
141423
140343
138345
135426
131591
126844
121205
114700
107348
99193.7
90247.6
80554.4
70198.7
59384.7
48610.6
39031.9
33378.4
31818.4
36493.6
45887.4
56586
67458.5
78004.8
87996.6