/*--------------------------------*- C++ -*----------------------------------*\
| =========                 |                                                 |
| \\      /  F ield         | OpenFOAM: The Open Source CFD Toolbox           |
|  \\    /   O peration     | Version:  2.4.x                                 |
|   \\  /    A nd           | Web:      www.OpenFOAM.org                      |
|    \\/     M anipulation  |                                                 |
\*---------------------------------------------------------------------------*/
FoamFile
{
    version     2.0;
    format      ascii;
    class       volScalarField;
    location    "9980/coolant";
    object      epsilon;
}
// * * * * * * * * * * * * * * * * * * * * * * * * * * * * * * * * * * * * * //

dimensions      [0 2 -3 0 0 0 0];

internalField   nonuniform List<scalar> 
109760
(
0.00655272
0.00200472
0.000781585
0.000364984
0.000195498
0.000116907
7.71188e-05
5.62731e-05
4.60591e-05
4.27838e-05
4.46915e-05
5.0778e-05
6.02371e-05
7.22433e-05
8.59363e-05
0.000100504
0.000115269
0.000129734
0.000143578
0.000156625
0.000168802
0.00018011
0.000190593
0.000200317
0.000209363
0.000217809
0.000225736
0.000233218
0.000240324
0.0002471
0.00025357
0.000259736
0.000265585
0.000271131
0.000276249
0.00656672
0.00200966
0.00080848
0.000426084
0.000300949
0.000275887
0.000294431
0.000330784
0.000371814
0.000411096
0.000446005
0.000475946
0.0005013
0.000522758
0.00054107
0.000556889
0.000570778
0.000583186
0.000594471
0.000604912
0.000614731
0.000624091
0.000633112
0.00064187
0.00065041
0.000658765
0.000666973
0.000675085
0.000683151
0.000691174
0.000699063
0.000706643
0.000713747
0.000720409
0.000726752
0.0133107
0.00674368
0.00469385
0.00396389
0.00365992
0.0035182
0.00345207
0.00342532
0.00342004
0.00342662
0.0034392
0.00345347
0.00346624
0.00347496
0.00347787
0.00347397
0.00346293
0.00344501
0.00342092
0.00339162
0.00335818
0.00332169
0.00328314
0.00324338
0.0032031
0.00316284
0.00312301
0.00308402
0.00304629
0.0030104
0.0029769
0.00294615
0.00291747
0.00289002
0.00285865
0.00692878
0.00239524
0.0013968
0.00118455
0.00116638
0.00119222
0.00122318
0.00125029
0.00127283
0.00129192
0.00130869
0.00132405
0.00133865
0.00135293
0.00136719
0.00138164
0.00139639
0.00141152
0.00142707
0.00144307
0.00145952
0.0014764
0.00149369
0.0015113
0.00152914
0.00154713
0.00156527
0.0015837
0.00160255
0.00162182
0.00164111
0.00165956
0.00167636
0.00169138
0.00170609
0.0134165
0.0064513
0.004407
0.00371366
0.00343237
0.00330338
0.00324317
0.00321919
0.00321615
0.00322568
0.00324332
0.00326651
0.00329367
0.00332381
0.00335617
0.00339011
0.00342503
0.00346029
0.00349532
0.00352959
0.00356268
0.00359422
0.00362398
0.0036518
0.00367761
0.00370138
0.0037232
0.00374323
0.00376178
0.00377931
0.00379625
0.00381284
0.003829
0.00384296
0.00385931
0.00656236
0.00200496
0.000800116
0.000412584
0.000280936
0.000249108
0.000262168
0.000295116
0.00033462
0.000373621
0.000408908
0.000439505
0.000465556
0.000487653
0.000506504
0.000522777
0.000537047
0.000549786
0.000561376
0.000572116
0.000582234
0.000591906
0.000601256
0.000610372
0.000619316
0.000628135
0.000636883
0.000645621
0.000654393
0.000663183
0.000671882
0.0006803
0.000688268
0.000695859
0.000702923
0.00655209
0.00199753
0.000776716
0.000361718
0.000192817
0.000113804
7.26289e-05
4.92683e-05
3.50811e-05
2.59753e-05
1.98586e-05
1.5591e-05
1.25168e-05
1.02414e-05
8.51757e-06
7.18561e-06
6.13924e-06
5.30629e-06
4.6372e-06
4.09788e-06
3.66547e-06
3.32564e-06
3.07092e-06
2.89972e-06
2.81579e-06
2.82785e-06
2.94932e-06
3.19801e-06
3.59562e-06
4.16714e-06
4.93974e-06
5.94149e-06
7.19805e-06
8.72865e-06
1.04968e-05
0.00658151
0.00202554
0.00085051
0.000500207
0.000407552
0.000409494
0.000445767
0.000490622
0.000533415
0.00057056
0.000601522
0.000627098
0.00064839
0.000666404
0.000681956
0.000695678
0.000708036
0.000719375
0.000729941
0.000739904
0.00074938
0.000758443
0.000767135
0.000775477
0.000783478
0.000791149
0.000798509
0.000805598
0.000812467
0.000819164
0.000825695
0.000831987
0.00083792
0.000843354
0.000848569
0.00655225
0.0020021
0.00077939
0.000363331
0.000193803
0.000114435
7.30589e-05
4.95874e-05
3.53502e-05
2.62453e-05
2.01843e-05
1.60421e-05
1.31911e-05
1.12786e-05
1.01152e-05
9.61329e-06
9.74989e-06
1.05401e-05
1.20155e-05
1.4206e-05
1.71242e-05
2.07549e-05
2.50491e-05
2.99239e-05
3.52701e-05
4.09629e-05
4.68746e-05
5.28877e-05
5.89044e-05
6.48495e-05
7.06686e-05
7.63238e-05
8.17821e-05
8.70112e-05
9.18881e-05
0.0073399
0.00282848
0.00187917
0.00167836
0.00164789
0.0016546
0.00166829
0.00168217
0.00169471
0.00170506
0.00171241
0.00171587
0.00171449
0.0017077
0.00169542
0.00167802
0.00165616
0.00163069
0.00160253
0.00157254
0.00154146
0.00150998
0.00147859
0.0014477
0.00141757
0.00138835
0.00136006
0.00133268
0.00130624
0.00128095
0.00125733
0.00123611
0.001218
0.00120242
0.00118909
0.00710116
0.0026426
0.00170933
0.0015217
0.0015033
0.00151855
0.00153703
0.00155263
0.00156496
0.00157449
0.00158081
0.00158327
0.00158119
0.00157412
0.00156201
0.00154517
0.00152424
0.00150002
0.00147338
0.00144513
0.001416
0.00138658
0.00135733
0.00132856
0.00130048
0.00127324
0.00124698
0.0012219
0.00119829
0.00117644
0.0011564
0.00113752
0.00111841
0.00109639
0.00107177
0.00761854
0.00312543
0.00219887
0.00199213
0.00194349
0.0019321
0.00193085
0.00193304
0.00193768
0.00194376
0.00194949
0.00195309
0.00195315
0.0019486
0.00193899
0.00192434
0.00190505
0.00188179
0.00185533
0.00182649
0.00179605
0.0017647
0.00173304
0.00170151
0.00167048
0.00164016
0.00161067
0.00158204
0.00155429
0.0015276
0.00150242
0.00147941
0.00145953
0.00144235
0.00142969
0.00746977
0.00296335
0.00202294
0.00181649
0.00177534
0.00177153
0.00177537
0.0017807
0.00178728
0.00179434
0.00180052
0.00180439
0.00180474
0.00180072
0.00179193
0.00177839
0.00176048
0.00173882
0.0017142
0.0016874
0.00165916
0.00163015
0.0016009
0.00157181
0.00154318
0.0015152
0.00148803
0.00146187
0.00143697
0.00141369
0.0013923
0.00137259
0.0013538
0.00133347
0.00131248
0.0254406
0.0121467
0.0078125
0.00640696
0.00584366
0.00557585
0.0054412
0.00537664
0.00535343
0.00535521
0.00537335
0.00540284
0.00544058
0.0054845
0.00553312
0.0055852
0.00563964
0.00569538
0.00575142
0.0058069
0.00586107
0.00591333
0.00596321
0.00601041
0.00605471
0.00609603
0.00613445
0.00617019
0.00620368
0.00623548
0.00626599
0.00629546
0.00632298
0.0063474
0.00636814
0.00657059
0.0020224
0.000829577
0.000458558
0.000346894
0.00033529
0.000365014
0.000409105
0.000454409
0.000495257
0.000529971
0.000558676
0.000582173
0.000601341
0.00061692
0.000629485
0.000639474
0.000647252
0.000653123
0.000657364
0.000660226
0.000661942
0.000662729
0.00066279
0.000662302
0.000661421
0.000660278
0.000658988
0.000657656
0.00065638
0.000655246
0.000654285
0.000653501
0.000652665
0.000652392
0.0065985
0.00204761
0.000896261
0.000571081
0.000500079
0.000516949
0.000560987
0.000608271
0.000650358
0.000685401
0.000714002
0.000737441
0.000756931
0.000773469
0.000787808
0.000800469
0.000811801
0.000822033
0.000831317
0.000839759
0.000847435
0.000854402
0.00086071
0.000866411
0.000871555
0.000876199
0.000880404
0.000884246
0.000887814
0.000891206
0.00089451
0.000897745
0.000900913
0.000903739
0.000907218
0.00671294
0.00218208
0.00112234
0.000877049
0.000855785
0.000892338
0.000936366
0.000974508
0.00100515
0.00102948
0.00104933
0.00106608
0.00108072
0.00109403
0.00110658
0.00111872
0.00113071
0.00114268
0.00115471
0.00116681
0.00117896
0.00119113
0.00120325
0.00121527
0.0012271
0.00123869
0.00125003
0.00126112
0.00127203
0.0012828
0.00129341
0.00130367
0.0013133
0.00132196
0.00133024
0.00717905
0.00264886
0.00166875
0.00145092
0.00141674
0.00142528
0.00144199
0.001459
0.00147484
0.0014896
0.00150358
0.00151698
0.00152993
0.00154244
0.00155437
0.00156553
0.00157567
0.0015846
0.00159216
0.00159828
0.00160296
0.00160626
0.00160829
0.0016092
0.00160912
0.00160822
0.00160666
0.00160459
0.00160223
0.00159982
0.00159768
0.00159594
0.00159478
0.0015929
0.00159446
0.0308855
0.0133926
0.00858117
0.00715707
0.00659503
0.0063295
0.00619825
0.00614037
0.00612528
0.00613655
0.00616493
0.00620482
0.00625281
0.00630668
0.00636476
0.00642561
0.00648796
0.00655063
0.00661254
0.00667277
0.00673059
0.00678548
0.00683712
0.00688534
0.00693004
0.00697119
0.00700895
0.00704373
0.00707619
0.00710712
0.0071368
0.00716494
0.00718974
0.00721052
0.00722714
0.00657081
0.00201065
0.000822158
0.000454413
0.000343879
0.000331382
0.000358743
0.000399883
0.000442517
0.000481422
0.000514996
0.000543315
0.000567092
0.000587186
0.000604395
0.000619393
0.00063273
0.000644841
0.000656066
0.000666667
0.000676841
0.000686734
0.000696447
0.000706043
0.00071556
0.00072503
0.000734497
0.000744017
0.000753633
0.000763313
0.000772911
0.000782184
0.000790929
0.000799268
0.000807074
0.0127425
0.00616023
0.00424832
0.00360178
0.00334104
0.00322048
0.00316215
0.00313658
0.00313068
0.00313705
0.00315154
0.00317172
0.00319609
0.00322371
0.00325394
0.0032863
0.00332032
0.00335557
0.0033916
0.00342798
0.00346433
0.00350029
0.00353556
0.00356987
0.003603
0.00363479
0.00366517
0.00369422
0.00372218
0.00374936
0.00377598
0.00380185
0.00382652
0.00384766
0.00387189
0.00658279
0.00204985
0.000882285
0.000542445
0.000464205
0.000480395
0.000527818
0.000579766
0.000625483
0.000661461
0.000686911
0.000702183
0.000708752
0.000708093
0.000701692
0.00069098
0.000677254
0.000661611
0.000644928
0.000627865
0.000610891
0.000594322
0.000578359
0.000563116
0.000548634
0.000534901
0.00052187
0.000509492
0.000497756
0.000486727
0.000476574
0.000467483
0.000459595
0.00045242
0.000446083
0.006583
0.00205021
0.000882673
0.000543005
0.000465024
0.000481353
0.0005287
0.000580424
0.000625867
0.000661581
0.000686832
0.000701958
0.000708421
0.000707683
0.000701219
0.000690457
0.000676689
0.000661013
0.000644305
0.000627227
0.000610248
0.000593677
0.000577706
0.000562438
0.000547911
0.000534141
0.000521143
0.000508953
0.000497622
0.00048715
0.000477393
0.000467934
0.000458177
0.000447297
0.000436184
0.00810516
0.00345653
0.00247238
0.00222473
0.00214906
0.00212316
0.00211635
0.00211823
0.0021239
0.00212987
0.00213415
0.00213504
0.00213073
0.00212002
0.00210248
0.00207835
0.00204843
0.00201377
0.00197556
0.00193501
0.00189316
0.00185085
0.00180869
0.00176717
0.0017266
0.00168717
0.00164914
0.00161295
0.0015792
0.00154841
0.00152034
0.00149324
0.00146355
0.00142679
0.00137991
0.00852362
0.00373704
0.00268402
0.00239373
0.00229357
0.00225545
0.00224357
0.00224429
0.0022509
0.00225861
0.00226506
0.00226789
0.002265
0.00225504
0.00223757
0.00221289
0.00218184
0.00214556
0.00210538
0.00206253
0.00201816
0.00197321
0.0019284
0.00188434
0.0018414
0.00179974
0.00175931
0.00171999
0.00168181
0.0016453
0.00161162
0.00158245
0.00155899
0.00154065
0.00152208
0.00655256
0.00200457
0.000781362
0.000364656
0.00019485
0.000115672
7.49423e-05
5.26622e-05
4.03535e-05
3.41899e-05
3.2402e-05
3.41574e-05
3.90001e-05
4.65446e-05
5.63249e-05
6.77666e-05
8.02444e-05
9.31722e-05
0.000106074
0.00011861
0.000130572
0.000141856
0.000152427
0.000162303
0.000171523
0.000180146
0.000188236
0.00019586
0.00020308
0.000209948
0.000216492
0.000222724
0.00022864
0.000234243
0.00023944
0.0202313
0.00999894
0.00666217
0.00556534
0.0051198
0.00490862
0.00480706
0.00476303
0.00474978
0.00475225
0.0047603
0.00476677
0.0047661
0.00475452
0.00473015
0.00469273
0.0046432
0.00458331
0.0045152
0.00444108
0.00436303
0.00428289
0.00420216
0.00412201
0.00404328
0.00396644
0.00389168
0.00381902
0.00374864
0.00368131
0.00361839
0.0035623
0.00351321
0.00347527
0.0034252
0.00657205
0.00202455
0.000834269
0.000465515
0.000355674
0.000345167
0.000375324
0.000419451
0.0004646
0.000505184
0.000539518
0.000567721
0.000590589
0.000608956
0.00062351
0.000634804
0.000643263
0.000649342
0.000653399
0.00065576
0.000656733
0.000656597
0.000655609
0.000653994
0.000651943
0.000649613
0.000647136
0.000644619
0.000642161
0.000639846
0.000637749
0.000635882
0.000634233
0.00063255
0.000631551
0.0605309
0.0295898
0.0185226
0.0151204
0.0137636
0.0131001
0.0127531
0.0125715
0.0124842
0.0124523
0.0124528
0.0124703
0.0124931
0.0125117
0.0125191
0.0125106
0.0124837
0.0124375
0.012373
0.0122921
0.0121975
0.0120921
0.0119787
0.0118601
0.0117385
0.0116158
0.0114936
0.0113731
0.0112551
0.0111408
0.0110309
0.0109279
0.0108288
0.0107507
0.0106289
0.0862734
0.0385189
0.0234587
0.0188987
0.0170911
0.0162258
0.0157757
0.0155496
0.0154531
0.0154347
0.0154668
0.0155342
0.0156278
0.0157415
0.0158711
0.0160139
0.0161674
0.0163298
0.0164995
0.0166752
0.016856
0.0170409
0.017229
0.0174192
0.0176108
0.0178032
0.0179969
0.0181925
0.0183905
0.0185893
0.0187844
0.0189699
0.0191427
0.0192979
0.019505
0.00838928
0.00374247
0.00269366
0.00239181
0.0022818
0.00223472
0.002214
0.00220738
0.00220858
0.00221425
0.00222211
0.00223025
0.0022371
0.00224135
0.00224207
0.00223872
0.00223115
0.00221953
0.00220426
0.00218591
0.00216513
0.00214253
0.00211871
0.00209417
0.00206932
0.00204449
0.00201993
0.00199585
0.00197253
0.0019503
0.00192957
0.00191055
0.00189327
0.00187612
0.00186116
0.00657727
0.00201932
0.000839068
0.000481644
0.000381679
0.000377862
0.000410821
0.000454678
0.000497975
0.000536264
0.000568523
0.00059514
0.000617225
0.000635812
0.000651771
0.000665773
0.00067833
0.000689836
0.000700579
0.000710765
0.000720541
0.000730001
0.000739199
0.000748163
0.000756902
0.000765421
0.000773734
0.000781876
0.000789883
0.000797774
0.000805505
0.000812952
0.000819955
0.000826422
0.00083245
0.00754031
0.00306057
0.00214803
0.00194091
0.00189066
0.00188012
0.00188199
0.00188848
0.0018964
0.00190305
0.00190734
0.00190801
0.00190363
0.00189329
0.00187673
0.00185427
0.00182668
0.00179496
0.0017602
0.00172345
0.00168565
0.00164752
0.0016096
0.00157231
0.0015359
0.00150058
0.00146657
0.00143425
0.00140411
0.00137652
0.00135116
0.00132638
0.00129915
0.00126573
0.00122482
0.0076541
0.00314639
0.00221972
0.0020002
0.00194172
0.00192678
0.00192672
0.0019327
0.00194091
0.00194815
0.00195318
0.00195453
0.00195066
0.00194061
0.00192408
0.00190144
0.00187347
0.00184119
0.00180571
0.00176813
0.00172939
0.00169028
0.0016514
0.00161325
0.00157611
0.00154011
0.0015052
0.0014713
0.00143849
0.00140723
0.0013785
0.00135356
0.00133327
0.0013165
0.00129975
0.00655227
0.00200319
0.000780043
0.000363722
0.000194052
0.000114601
7.31726e-05
4.96646e-05
3.53967e-05
2.62598e-05
2.01576e-05
1.5956e-05
1.30141e-05
1.09617e-05
9.5871e-06
8.77732e-06
8.48441e-06
8.70341e-06
9.4554e-06
1.07724e-05
1.26835e-05
1.52033e-05
1.83237e-05
2.20092e-05
2.61976e-05
3.08045e-05
3.57316e-05
4.08763e-05
4.61422e-05
5.14456e-05
5.67192e-05
6.19126e-05
6.69861e-05
7.19017e-05
7.65754e-05
0.00882397
0.00408259
0.00297992
0.00264609
0.00251971
0.00246339
0.00243652
0.00242528
0.00242277
0.00242551
0.00243111
0.00243764
0.00244333
0.00244671
0.00244673
0.00244273
0.00243444
0.00242195
0.0024056
0.00238592
0.00236354
0.0023391
0.00231323
0.00228649
0.00225936
0.00223223
0.00220539
0.00217902
0.00215327
0.00212828
0.00210429
0.00208172
0.0020613
0.0020431
0.00202979
0.00708174
0.00255733
0.00157496
0.0013671
0.00134383
0.00136024
0.00138149
0.00140054
0.00141692
0.00143147
0.00144498
0.00145801
0.0014709
0.00148383
0.00149684
0.00150987
0.00152279
0.00153541
0.00154754
0.00155903
0.00156974
0.00157961
0.00158857
0.00159662
0.0016038
0.00161014
0.00161572
0.00162063
0.00162502
0.0016291
0.00163308
0.00163707
0.00164118
0.00164463
0.00164976
0.0125381
0.00584195
0.0039795
0.00336288
0.0031268
0.00302904
0.00299051
0.00298147
0.00298895
0.00300628
0.00302975
0.0030574
0.00308791
0.00312067
0.00315539
0.00319184
0.00322986
0.00326924
0.00330981
0.00335137
0.00339371
0.00343661
0.00347985
0.00352314
0.00356623
0.0036089
0.00365108
0.00369295
0.00373479
0.00377673
0.00381827
0.00385807
0.0038945
0.00392523
0.00395698
0.0726083
0.0350929
0.0218503
0.0177851
0.0161429
0.0153283
0.0149009
0.0146791
0.0145724
0.0145321
0.0145282
0.0145405
0.0145535
0.0145555
0.0145386
0.014498
0.0144321
0.0143414
0.0142284
0.0140965
0.0139497
0.0137919
0.0136269
0.0134579
0.0132875
0.013118
0.0129507
0.012787
0.0126278
0.0124744
0.0123279
0.0121918
0.0120614
0.0119588
0.0117997
0.0646634
0.0309437
0.0190277
0.0154522
0.0140312
0.0133356
0.0129779
0.0127983
0.012718
0.0126948
0.0127032
0.0127247
0.0127458
0.0127559
0.0127477
0.0127171
0.0126627
0.0125851
0.012487
0.0123716
0.0122427
0.0121042
0.0119593
0.0118109
0.0116614
0.0115127
0.0113664
0.0112238
0.0110863
0.0109552
0.0108303
0.0107125
0.0105937
0.0104901
0.0103238
0.00712519
0.00265187
0.00172308
0.00152948
0.00150189
0.00150956
0.00152293
0.00153647
0.00154961
0.00156264
0.00157569
0.00158885
0.00160234
0.00161631
0.00163079
0.00164574
0.00166105
0.00167659
0.00169219
0.00170767
0.00172288
0.0017377
0.00175202
0.00176578
0.0017789
0.00179133
0.00180305
0.00181413
0.00182474
0.00183507
0.00184523
0.00185496
0.00186403
0.00187141
0.0018818
0.00655872
0.0020046
0.000791579
0.000393157
0.00024839
0.000202153
0.00020194
0.00022498
0.000258679
0.000295343
0.000330584
0.00036234
0.000390012
0.000413779
0.000434141
0.00045168
0.00046696
0.000480468
0.000492613
0.000503707
0.000513996
0.000523667
0.000532861
0.000541678
0.00055019
0.000558455
0.000566528
0.000574459
0.000582292
0.000590025
0.000597597
0.000604895
0.000611813
0.000618381
0.000624534
0.00657076
0.00201095
0.000822589
0.000455565
0.000346327
0.000335393
0.000364179
0.000406395
0.000449712
0.000488871
0.000522401
0.000550478
0.000573914
0.000593644
0.000610506
0.000625199
0.000638286
0.000650198
0.000661266
0.00067173
0.000681764
0.000691488
0.00070098
0.000710285
0.000719424
0.000728415
0.000737279
0.000746056
0.000754775
0.000763424
0.000771918
0.000780098
0.000787801
0.000795022
0.000801713
0.00675946
0.00222346
0.00118621
0.000957754
0.000943319
0.00097989
0.00102122
0.00105644
0.00108483
0.00110788
0.00112714
0.00114378
0.0011587
0.00117257
0.00118587
0.00119895
0.00121204
0.00122528
0.00123879
0.00125258
0.00126667
0.00128104
0.00129563
0.00131038
0.0013252
0.00134003
0.00135484
0.00136969
0.00138464
0.00139967
0.00141458
0.0014289
0.00144208
0.00145394
0.00146427
0.00656023
0.002015
0.000801194
0.000403575
0.000261509
0.000219282
0.000223387
0.00025011
0.000286366
0.00032449
0.000360367
0.000392193
0.000419541
0.000442658
0.000462031
0.000478161
0.0004915
0.00050244
0.000511313
0.000518417
0.00052401
0.000528322
0.000531567
0.000533943
0.000535629
0.000536785
0.000537549
0.000538044
0.000538378
0.000538649
0.000538937
0.000539285
0.000539701
0.000540085
0.000540731
0.00668448
0.00218056
0.00111907
0.000875241
0.000861577
0.00090772
0.000960222
0.0010044
0.00103799
0.00106182
0.00107655
0.00108355
0.00108377
0.00107794
0.0010669
0.00105161
0.00103306
0.00101222
0.000989949
0.000966944
0.00094376
0.000920812
0.000898404
0.000876738
0.00085592
0.000835972
0.000816828
0.000798441
0.000780812
0.000764087
0.000748629
0.000734901
0.000723338
0.00071324
0.000704584
0.00669059
0.00218902
0.00113531
0.000894648
0.000879732
0.000922493
0.000971645
0.00101328
0.00104511
0.0010678
0.00108213
0.00108891
0.00108901
0.00108311
0.001072
0.00105663
0.00103797
0.001017
0.000994583
0.000971436
0.000948116
0.000925021
0.000902455
0.000880595
0.000859548
0.000839373
0.000820138
0.000801965
0.000785007
0.000769344
0.00075479
0.000740623
0.000725727
0.000708461
0.000689912
0.00655244
0.00200488
0.000781232
0.000364465
0.000194497
0.000114921
7.34983e-05
5.01152e-05
3.61181e-05
2.74582e-05
2.21386e-05
1.91652e-05
1.80736e-05
1.86854e-05
2.09577e-05
2.48745e-05
3.03685e-05
3.72805e-05
4.53576e-05
5.42823e-05
6.37183e-05
7.33539e-05
8.29328e-05
9.22661e-05
0.000101236
0.000109776
0.000117856
0.000125479
0.00013267
0.000139458
0.00014587
0.000151927
0.000157636
0.000162997
0.000167951
0.00655438
0.00200457
0.000782952
0.000370993
0.00020861
0.000140252
0.000114699
0.00011238
0.000124171
0.000144516
0.000169349
0.00019565
0.000221399
0.000245451
0.000267317
0.000286894
0.000304313
0.000319814
0.000333633
0.000346065
0.000357351
0.000367695
0.000377263
0.000386194
0.000394597
0.000402567
0.000410182
0.000417514
0.000424617
0.000431519
0.000438204
0.000444621
0.000450717
0.000456516
0.000461893
0.00659908
0.00206763
0.000916768
0.000596141
0.000534527
0.000561636
0.0006135
0.000665332
0.000709266
0.000744239
0.000771289
0.000791809
0.000806937
0.000817513
0.000824173
0.000827416
0.000827701
0.000825491
0.000821252
0.000815441
0.000808483
0.000800754
0.00079257
0.000784187
0.000775804
0.000767565
0.000759569
0.000751878
0.000744528
0.000737547
0.000730978
0.000724867
0.000719369
0.000714357
0.000711178
0.00677538
0.00227138
0.00123463
0.0010072
0.000998995
0.0010426
0.00108901
0.0011264
0.00115423
0.00117479
0.00118976
0.00120018
0.00120638
0.0012088
0.00120768
0.00120324
0.00119584
0.0011859
0.00117394
0.00116045
0.00114592
0.00113076
0.00111532
0.00109986
0.00108459
0.00106965
0.00105513
0.00104113
0.00102773
0.0010151
0.00100339
0.000992632
0.000982785
0.000972811
0.000964479
0.00920767
0.00411627
0.0028821
0.00249965
0.00235379
0.00229293
0.00227013
0.00226702
0.00227466
0.0022882
0.00230506
0.00232373
0.00234325
0.00236291
0.00238204
0.00240002
0.00241628
0.0024304
0.00244207
0.00245115
0.00245767
0.00246174
0.00246358
0.00246345
0.00246163
0.00245841
0.00245404
0.00244884
0.00244317
0.00243749
0.00243231
0.00242792
0.00242445
0.00242001
0.00241824
0.00663567
0.00209501
0.000986535
0.000701537
0.000659631
0.000691719
0.000740041
0.000785469
0.000823259
0.000853461
0.000877648
0.000897441
0.000914145
0.000928724
0.000941802
0.000953821
0.00096506
0.000975676
0.000985754
0.000995337
0.00100445
0.0010131
0.00102131
0.00102909
0.00103643
0.00104334
0.00104984
0.001056
0.0010619
0.00106765
0.00107328
0.00107867
0.00108364
0.00108794
0.00109271
0.00655287
0.0020083
0.000783239
0.000366033
0.000196443
0.00011804
7.86887e-05
5.85359e-05
4.92712e-05
4.71768e-05
5.04478e-05
5.80253e-05
6.90586e-05
8.26842e-05
9.79936e-05
0.000114105
0.000130265
0.000145912
0.000160692
0.000174426
0.000187061
0.000198622
0.00020918
0.000218823
0.00022764
0.000235722
0.000243151
0.000250018
0.000256389
0.000262326
0.000267871
0.000273053
0.00027788
0.00028236
0.000286449
0.0065543
0.00201122
0.000786797
0.000371944
0.000206841
0.000135515
0.000106416
0.000100025
0.000107659
0.000124363
0.000146521
0.000171239
0.000196327
0.000220317
0.000242375
0.000262158
0.000279599
0.00029479
0.000307895
0.000319084
0.000328569
0.000336578
0.000343316
0.000348975
0.000353722
0.000357719
0.00036111
0.000364026
0.000366584
0.000368887
0.000371015
0.000373019
0.000374913
0.000376693
0.000378431
0.00685449
0.0023632
0.00135399
0.00114328
0.00113944
0.00117979
0.0012204
0.00125243
0.00127646
0.00129446
0.00130786
0.0013175
0.00132358
0.00132612
0.00132519
0.00132095
0.00131367
0.00130373
0.00129158
0.00127771
0.0012626
0.00124668
0.00123033
0.00121384
0.00119748
0.00118141
0.00116576
0.0011506
0.00113597
0.00112191
0.00110854
0.00109603
0.00108481
0.00107455
0.00106816
0.00693767
0.00241419
0.00142421
0.00122013
0.00120714
0.00123416
0.00126373
0.00128872
0.00130941
0.00132703
0.00134276
0.00135735
0.00137125
0.0013848
0.0013984
0.00141228
0.00142655
0.00144126
0.00145642
0.00147197
0.00148785
0.00150399
0.00152028
0.00153661
0.00155287
0.00156897
0.00158485
0.00160055
0.00161617
0.00163176
0.00164719
0.00166208
0.00167588
0.00168807
0.00169926
0.00716357
0.00268679
0.00173634
0.00153885
0.00151448
0.00152611
0.00154206
0.00155539
0.00156691
0.00157724
0.0015865
0.00159441
0.00160048
0.0016042
0.00160516
0.00160315
0.00159814
0.00159032
0.00158
0.0015676
0.00155357
0.00153835
0.00152232
0.00150584
0.00148919
0.00147258
0.00145617
0.00144011
0.00142459
0.00140982
0.00139608
0.00138349
0.00137208
0.00136069
0.00135121
0.0082721
0.00345137
0.00236772
0.00207707
0.00198529
0.00195481
0.00194778
0.00195157
0.00196118
0.0019743
0.00198976
0.00200694
0.0020255
0.00204527
0.00206614
0.00208811
0.00211111
0.00213509
0.00215998
0.00218573
0.00221227
0.00223952
0.00226739
0.00229571
0.00232434
0.00235315
0.00238219
0.00241171
0.00244198
0.00247294
0.0025038
0.00253302
0.00255905
0.0025816
0.00260416
0.00655339
0.00201898
0.000790339
0.000370047
0.000198032
0.000117372
7.54506e-05
5.19696e-05
3.82135e-05
3.01403e-05
2.57931e-05
2.42184e-05
2.49541e-05
2.77483e-05
3.23901e-05
3.86156e-05
4.6078e-05
5.43662e-05
6.30519e-05
7.17496e-05
8.01462e-05
8.8024e-05
9.52593e-05
0.000101806
0.000107675
0.000112913
0.000117588
0.000121776
0.000125555
0.000128997
0.000132174
0.000135141
0.000137948
0.000140592
0.000143168
0.00657565
0.00201432
0.000835232
0.000479625
0.000382365
0.000381579
0.000416963
0.000462184
0.00050598
0.000544402
0.000576784
0.000603763
0.000626318
0.000645414
0.000661867
0.000676314
0.00068929
0.000701204
0.000712368
0.000723019
0.000733338
0.000743453
0.000753452
0.000763382
0.00077327
0.000783137
0.000793018
0.000802968
0.000813029
0.000823162
0.000833205
0.000842894
0.00085202
0.00086072
0.000868872
0.0674525
0.03082
0.0188344
0.0153181
0.0139168
0.0132323
0.0128831
0.0127133
0.0126459
0.0126376
0.0126644
0.0127109
0.0127661
0.0128211
0.0128689
0.0129041
0.0129231
0.0129244
0.0129076
0.0128738
0.012825
0.0127634
0.0126915
0.0126117
0.0125264
0.0124374
0.0123466
0.0122555
0.0121658
0.0120791
0.0119959
0.0119175
0.0118374
0.011769
0.0116401
0.00655768
0.00200434
0.000789252
0.00038754
0.000238671
0.000187539
0.00018205
0.000200158
0.000229867
0.000263721
0.000297252
0.000328149
0.000355551
0.000379401
0.000400016
0.00041788
0.000433489
0.000447289
0.000459658
0.000470902
0.000481264
0.000490931
0.000500043
0.000508703
0.000516986
0.000524951
0.000532651
0.000540125
0.000547425
0.000554563
0.000561509
0.000568185
0.000574507
0.00058049
0.000585986
0.00655233
0.00200376
0.000780689
0.000364191
0.000194367
0.000114816
7.33226e-05
4.97674e-05
3.54591e-05
2.62799e-05
2.01248e-05
1.58489e-05
1.27973e-05
1.05808e-05
8.96286e-06
7.79921e-06
7.00526e-06
6.53701e-06
6.37963e-06
6.53959e-06
7.03848e-06
7.90729e-06
9.18082e-06
1.08922e-05
1.30676e-05
1.57212e-05
1.8851e-05
2.2436e-05
2.64356e-05
3.07929e-05
3.5439e-05
4.0299e-05
4.52948e-05
5.03447e-05
5.53338e-05
0.00684481
0.0023169
0.00131024
0.00109859
0.00108697
0.00111955
0.00115529
0.00118542
0.00120971
0.00122969
0.0012468
0.00126211
0.00127639
0.00129015
0.00130377
0.00131748
0.00133145
0.00134578
0.00136052
0.00137571
0.00139135
0.00140744
0.00142394
0.00144077
0.00145787
0.00147515
0.00149264
0.00151046
0.00152873
0.00154739
0.00156601
0.00158379
0.00159995
0.00161451
0.00162811
0.00656272
0.00200878
0.000801965
0.000412358
0.0002786
0.000244387
0.000254911
0.000285523
0.000323085
0.000360667
0.000394979
0.00042499
0.000450693
0.000472605
0.00049136
0.000507573
0.000521775
0.000534397
0.000545779
0.000556181
0.000565802
0.000574786
0.000583233
0.000591213
0.000598777
0.000605965
0.000612819
0.000619386
0.000625717
0.000631848
0.000637784
0.000643471
0.00064883
0.000653807
0.000658485
0.0241488
0.0121336
0.00789778
0.00648195
0.0059085
0.00563523
0.00550144
0.00544023
0.00541926
0.00542109
0.00543543
0.0054552
0.00547513
0.00549104
0.00549987
0.00549965
0.00548946
0.00546933
0.00543998
0.00540263
0.00535872
0.00530977
0.00525722
0.00520236
0.00514623
0.00508972
0.00503351
0.00497827
0.00492463
0.00487337
0.00482501
0.00478018
0.00473681
0.00469774
0.00464151
0.073888
0.0346882
0.0212152
0.0169869
0.0153036
0.0144969
0.0140748
0.0138593
0.0137639
0.0137416
0.0137664
0.0138236
0.0139042
0.0140028
0.0141157
0.0142404
0.0143748
0.0145175
0.014667
0.0148221
0.014982
0.0151456
0.0153121
0.0154805
0.0156502
0.0158206
0.0159922
0.0161651
0.0163393
0.016513
0.0166821
0.0168424
0.0169922
0.0171294
0.0173093
0.00655883
0.00200635
0.000791275
0.000389775
0.000241583
0.000191588
0.0001874
0.000206634
0.000237127
0.00027143
0.000305251
0.000336368
0.000363945
0.000387938
0.000408674
0.000426612
0.000442225
0.000455947
0.000468155
0.000479165
0.000489234
0.000498567
0.000507316
0.000515593
0.000523476
0.000531024
0.00053829
0.000545331
0.000552201
0.000558921
0.000565453
0.000571701
0.000577568
0.000583077
0.000588324
0.00655553
0.0020301
0.000797039
0.000375521
0.00020458
0.000127229
9.11919e-05
7.67101e-05
7.53721e-05
8.27543e-05
9.56341e-05
0.000111187
0.000127036
0.000141487
0.000153599
0.000163058
0.000169964
0.000174637
0.000177476
0.000178877
0.000179192
0.000178719
0.000177697
0.000176313
0.000174707
0.000172985
0.000171224
0.00016948
0.000167798
0.000166214
0.000164755
0.000163427
0.000162218
0.000161046
0.000159998
0.00655275
0.00201092
0.000785116
0.000366864
0.000196045
0.000116031
7.44321e-05
5.10635e-05
3.72555e-05
2.89757e-05
2.42623e-05
2.21606e-05
2.22319e-05
2.4287e-05
2.82172e-05
3.38809e-05
4.10403e-05
4.93508e-05
5.83808e-05
6.77128e-05
7.70049e-05
8.59645e-05
9.44072e-05
0.000102242
0.000109449
0.000116049
0.000122093
0.000127641
0.000132757
0.000137506
0.000141946
0.000146123
0.000150071
0.000153803
0.000157334
0.00725729
0.00266454
0.00167403
0.00146171
0.00143221
0.00144322
0.00146109
0.00147874
0.00149537
0.00151131
0.00152687
0.00154223
0.00155761
0.0015732
0.00158916
0.00160565
0.00162274
0.00164044
0.00165875
0.00167762
0.00169701
0.00171685
0.00173703
0.00175743
0.00177794
0.00179844
0.00181891
0.00183943
0.00186012
0.00188095
0.00190161
0.00192138
0.00193946
0.00195541
0.00197011
0.00716767
0.00266701
0.00171591
0.00151714
0.0014889
0.00149618
0.00150854
0.00152004
0.00153106
0.00154196
0.00155323
0.0015651
0.00157763
0.00159087
0.00160483
0.00161951
0.00163482
0.00165067
0.0016669
0.00168336
0.00169989
0.00171634
0.00173257
0.00174844
0.00176386
0.00177874
0.00179303
0.00180677
0.00182006
0.00183304
0.00184582
0.00185826
0.0018702
0.00188064
0.00189331
0.00655298
0.00200825
0.000783635
0.000366386
0.000196804
0.000118553
7.9556e-05
6.00635e-05
5.19091e-05
5.15135e-05
5.70971e-05
6.74346e-05
8.13363e-05
9.7543e-05
0.00011485
0.000132262
0.000149084
0.000164895
0.000179497
0.000192842
0.000204975
0.000215983
0.000225972
0.000235046
0.000243305
0.000250841
0.00025774
0.000264086
0.000269956
0.000275419
0.000280522
0.000285286
0.000289711
0.00029382
0.000297577
0.00821763
0.00347844
0.0024375
0.0021582