/*--------------------------------*- C++ -*----------------------------------*\
| =========                 |                                                 |
| \\      /  F ield         | OpenFOAM: The Open Source CFD Toolbox           |
|  \\    /   O peration     | Version:  2.4.x                                 |
|   \\  /    A nd           | Web:      www.OpenFOAM.org                      |
|    \\/     M anipulation  |                                                 |
\*---------------------------------------------------------------------------*/
FoamFile
{
    version     2.0;
    format      ascii;
    class       volScalarField;
    location    "9980/coolant";
    object      k;
}
// * * * * * * * * * * * * * * * * * * * * * * * * * * * * * * * * * * * * * //

dimensions      [0 2 -2 0 0 0 0];

internalField   nonuniform List<scalar> 
109760
(
0.000349476
0.000160207
8.82842e-05
5.54283e-05
3.83181e-05
2.863e-05
2.29878e-05
1.99223e-05
1.87923e-05
1.93275e-05
2.13937e-05
2.48589e-05
2.95288e-05
3.51394e-05
4.13912e-05
4.7996e-05
5.47128e-05
6.13615e-05
6.78197e-05
7.40127e-05
7.99016e-05
8.54735e-05
9.07329e-05
9.56944e-05
0.000100377
0.000104802
0.00010899
0.000112968
0.000116763
0.000120402
0.0001239
0.000127254
0.000130439
0.000133423
0.000136172
0.000350352
0.000161269
9.26173e-05
6.6123e-05
5.85937e-05
6.11358e-05
6.9049e-05
7.94103e-05
9.0436e-05
0.000101134
0.00011103
0.000119968
0.000127962
0.000135093
0.000141467
0.000147191
0.000152362
0.000157068
0.000161382
0.000165368
0.00016908
0.000172563
0.000175853
0.000178976
0.00018195
0.000184785
0.000187493
0.0001901
0.000192641
0.00019515
0.000197626
0.000200011
0.000202201
0.000204106
0.000205811
0.000405319
0.000235778
0.000189728
0.000175078
0.000170367
0.000169525
0.000170372
0.000171956
0.000173808
0.000175698
0.000177488
0.000179067
0.00018035
0.000181272
0.000181794
0.000181907
0.000181626
0.000180986
0.000180037
0.000178836
0.000177441
0.000175905
0.000174277
0.000172596
0.000170892
0.000169188
0.000167499
0.000165841
0.000164236
0.000162718
0.000161332
0.000160105
0.000159049
0.000157953
0.000157034
0.000354612
0.000175254
0.000129069
0.000122935
0.00012865
0.000137125
0.000145527
0.000153059
0.000159619
0.000165317
0.000170309
0.000174735
0.000178711
0.000182336
0.000185685
0.000188818
0.00019178
0.000194606
0.000197328
0.000199967
0.000202545
0.000205079
0.000207578
0.000210044
0.00021247
0.000214847
0.00021718
0.0002195
0.000221861
0.000224301
0.000226786
0.00022916
0.000231207
0.000232773
0.000234092
0.000392034
0.00021823
0.000172921
0.000159345
0.000155329
0.000154844
0.000155817
0.000157416
0.000159291
0.000161269
0.000163272
0.000165263
0.000167229
0.000169163
0.000171066
0.000172933
0.000174756
0.000176526
0.00017823
0.000179857
0.000181396
0.000182843
0.000184191
0.000185441
0.000186593
0.000187648
0.000188613
0.000189496
0.000190313
0.000191092
0.000191863
0.000192643
0.000193455
0.000194129
0.00019512
0.000350011
0.000160683
9.13643e-05
6.37928e-05
5.48688e-05
5.60256e-05
6.28727e-05
7.25916e-05
8.33347e-05
9.39897e-05
0.000103982
0.000113084
0.00012126
0.00012857
0.000135112
0.000140992
0.00014631
0.000151156
0.000155608
0.000159733
0.000163586
0.000167214
0.000170654
0.000173934
0.000177073
0.000180086
0.00018299
0.000185816
0.000188599
0.000191365
0.000194101
0.00019673
0.000199136
0.000201243
0.000203083
0.000349434
0.00015975
8.78443e-05
5.49888e-05
3.77625e-05
2.7735e-05
2.14136e-05
1.71737e-05
1.41866e-05
1.19971e-05
1.03393e-05
9.05008e-06
8.02473e-06
7.19384e-06
6.51003e-06
5.94029e-06
5.46143e-06
5.05725e-06
4.71693e-06
4.434e-06
4.20584e-06
4.03352e-06
3.92174e-06
3.87898e-06
3.91771e-06
4.05446e-06
4.30991e-06
4.70855e-06
5.27814e-06
6.04867e-06
7.05087e-06
8.31427e-06
9.86342e-06
1.17136e-05
1.38247e-05
0.000350881
0.000162609
9.7272e-05
7.55189e-05
7.28717e-05
7.91505e-05
8.91332e-05
0.000100065
0.000110621
0.000120264
0.000128846
0.000136421
0.000143113
0.000149057
0.000154373
0.000159167
0.000163523
0.00016751
0.000171183
0.000174583
0.000177743
0.000180691
0.000183445
0.000186023
0.000188436
0.000190696
0.000192816
0.000194813
0.000196716
0.000198553
0.000200348
0.000202094
0.000203755
0.000205236
0.000206619
0.000349444
0.000160035
8.80752e-05
5.5172e-05
3.7905e-05
2.78485e-05
2.15097e-05
1.72641e-05
1.42862e-05
1.21271e-05
1.05323e-05
9.35611e-06
8.51957e-06
7.98861e-06
7.76142e-06
7.85984e-06
8.32154e-06
9.19142e-06
1.0512e-05
1.23136e-05
1.4606e-05
1.73729e-05
2.05714e-05
2.41356e-05
2.79845e-05
3.20319e-05
3.61949e-05
4.04023e-05
4.45984e-05
4.87442e-05
5.28142e-05
5.67927e-05
6.06646e-05
6.44105e-05
6.79616e-05
0.000358584
0.000187145
0.000148213
0.000144791
0.000150203
0.000157225
0.000163962
0.000169949
0.000175098
0.000179405
0.00018285
0.000185417
0.000187087
0.000187874
0.000187837
0.00018707
0.00018569
0.000183825
0.000181595
0.000179108
0.00017646
0.000173729
0.000170975
0.000168247
0.000165575
0.000162975
0.000160441
0.000157959
0.000155515
0.000153126
0.000150874
0.000148908
0.000147438
0.000146472
0.000146103
0.000356567
0.000183631
0.000143666
0.000140213
0.000146098
0.000153602
0.000160651
0.000166775
0.000171946
0.00017624
0.000179665
0.000182208
0.000183861
0.000184639
0.000184599
0.000183831
0.000182452
0.000180587
0.000178363
0.00017589
0.000173264
0.000170563
0.000167844
0.000165145
0.00016249
0.000159892
0.00015736
0.000154923
0.000152635
0.000150573
0.000148797
0.000147252
0.000145721
0.000143627
0.000140777
0.000358756
0.000193422
0.000159184
0.000157149
0.000162086
0.000168008
0.000173515
0.00017831
0.000182486
0.000186088
0.000189083
0.00019141
0.000193023
0.000193904
0.000194075
0.000193597
0.000192554
0.000191044
0.000189169
0.000187023
0.000184694
0.000182254
0.000179763
0.000177268
0.000174804
0.000172392
0.000170036
0.00016773
0.000165464
0.00016325
0.000161143
0.00015925
0.000157757
0.000156656
0.000156294
0.000358226
0.000189506
0.000152847
0.000149911
0.000154915
0.000161222
0.000167081
0.000172157
0.000176559
0.000180337
0.00018347
0.000185915
0.000187634
0.000188616
0.000188882
0.000188491
0.000187525
0.000186086
0.000184278
0.000182199
0.000179939
0.000177572
0.000175157
0.000172737
0.00017034
0.000167984
0.00016568
0.000163446
0.000161318
0.000159356
0.000157627
0.00015614
0.000154815
0.000153237
0.000151443
0.000486599
0.000280434
0.000212152
0.00018853
0.000179334
0.000175562
0.000174237
0.000174134
0.000174708
0.00017567
0.000176864
0.000178207
0.000179648
0.000181157
0.000182713
0.000184299
0.000185897
0.000187489
0.000189058
0.000190586
0.000192059
0.000193467
0.000194802
0.000196058
0.000197231
0.000198322
0.000199332
0.000200269
0.000201146
0.000201985
0.000202806
0.000203617
0.000204416
0.000205091
0.000205845
0.000350338
0.000162002
9.45676e-05
6.98429e-05
6.43494e-05
6.87325e-05
7.79647e-05
8.90371e-05
0.000100232
0.000110702
0.000120121
0.000128433
0.000135703
0.000142028
0.000147502
0.000152209
0.000156218
0.000159597
0.00016241
0.000164722
0.000166598
0.000168101
0.000169292
0.000170229
0.000170962
0.000171535
0.000171987
0.00017235
0.000172655
0.000172938
0.000173237
0.00017358
0.000173988
0.000174386
0.000174891
0.000351184
0.000163816
0.000101172
8.25773e-05
8.25541e-05
9.04346e-05
0.000101051
0.000111941
0.000122063
0.000131094
0.000139025
0.000145972
0.000152076
0.000157471
0.000162271
0.000166565
0.000170419
0.000173884
0.000176998
0.000179795
0.000182305
0.000184553
0.000186564
0.000188365
0.000189977
0.000191424
0.000192726
0.000193908
0.000194998
0.000196027
0.000197034
0.000198038
0.000199052
0.000199984
0.000201026
0.00035378
0.000170848
0.000118419
0.000109379
0.000115232
0.000125223
0.00013545
0.000144698
0.000152754
0.000159696
0.000165714
0.000170977
0.000175631
0.000179801
0.000183588
0.000187073
0.000190318
0.000193369
0.000196257
0.000199006
0.000201631
0.000204144
0.00020655
0.000208854
0.000211055
0.000213153
0.000215152
0.000217066
0.000218921
0.000220746
0.000222561
0.000224337
0.000226011
0.000227442
0.000228767
0.000356102
0.00018127
0.000138739
0.000133145
0.000137677
0.000144423
0.000151156
0.000157276
0.00016268
0.000167425
0.000171605
0.000175302
0.000178589
0.000181517
0.000184118
0.000186408
0.000188396
0.000190093
0.000191511
0.000192667
0.000193583
0.000194286
0.000194805
0.000195166
0.000195399
0.000195524
0.000195563
0.000195537
0.000195471
0.000195404
0.000195385
0.00019545
0.000195645
0.000195773
0.000196324
0.000462826
0.000247829
0.000185878
0.000166339
0.000159076
0.000156244
0.000155372
0.000155515
0.000156215
0.000157232
0.000158433
0.000159739
0.000161108
0.000162516
0.000163945
0.000165377
0.000166799
0.000168192
0.000169544
0.00017084
0.00017207
0.000173229
0.000174312
0.00017532
0.000176252
0.000177108
0.00017789
0.000178607
0.000179277
0.000179923
0.000180561
0.000181183
0.000181757
0.000182186
0.000182666
0.00035031
0.000161263
9.3973e-05
6.94704e-05
6.40385e-05
6.82457e-05
7.71357e-05
8.7831e-05
9.8728e-05
0.000109027
0.000118406
0.0001268
0.000134264
0.000140905
0.000146839
0.000152176
0.000157015
0.000161441
0.000165526
0.000169332
0.000172907
0.000176295
0.000179527
0.000182627
0.000185608
0.000188482
0.000191264
0.000193983
0.000196678
0.000199377
0.000202059
0.000204632
0.000206961
0.000208965
0.0002107
0.000396065
0.000222482
0.000177521
0.000164509
0.000160915
0.000160626
0.000161643
0.000163187
0.000164983
0.000166884
0.000168822
0.000170765
0.000172697
0.000174617
0.000176525
0.000178425
0.000180316
0.000182193
0.00018405
0.000185877
0.000187665
0.000189407
0.000191094
0.000192719
0.000194275
0.000195757
0.000197163
0.000198499
0.000199783
0.000201041
0.000202295
0.000203536
0.000204755
0.000205751
0.000207014
0.0003507
0.000164023
0.000100046
8.00742e-05
7.94894e-05
8.76089e-05
9.89447e-05
0.000110678
0.000121458
0.000130701
0.000138145
0.00014373
0.000147591
0.000149914
0.000150922
0.000150857
0.000149957
0.000148442
0.000146495
0.000144269
0.000141879
0.000139415
0.00013694
0.000134502
0.000132128
0.000129829
0.000127601
0.000125428
0.000123302
0.00012124
0.000119313
0.000117644
0.000116386
0.000115546
0.000115084
0.000350735
0.000164082
0.000100153
8.02775e-05
7.98044e-05
8.79984e-05
9.93554e-05
0.000111072
0.000121819
0.000131025
0.000138441
0.000144005
0.00014785
0.000150161
0.000151158
0.000151083
0.000150175
0.00014865
0.000146695
0.000144461
0.000142067
0.000139599
0.000137119
0.000134668
0.00013227
0.000129935
0.000127679
0.000125527
0.000123524
0.000121724
0.000120145
0.000118695
0.000117134
0.000115021
0.00011215
0.000356044
0.000192853
0.000159651
0.00015625
0.000159493
0.000164152
0.000168874
0.000173231
0.000177067
0.000180265
0.000182786
0.000184593
0.000185627
0.000185868
0.000185348
0.00018414
0.000182352
0.000180098
0.000177498
0.000174667
0.000171699
0.000168669
0.00016563
0.00016262
0.000159658
0.000156754
0.000153924
0.000151214
0.000148712
0.000146519
0.000144675
0.000143017
0.000141098
0.000138107
0.000133519
0.000356299
0.000193226
0.00015943
0.000154678
0.000156746
0.000160606
0.000164814
0.00016884
0.000172461
0.000175518
0.00017796
0.000179718
0.000180727
0.000180963
0.000180456
0.000179278
0.000177533
0.000175331
0.000172793
0.000170023
0.000167114
0.000164139
0.000161157
0.000158215
0.000155342
0.000152547
0.000149815
0.000147115
0.000144432
0.000141801
0.000139354
0.000137318
0.000135958
0.000135283
0.000135065
0.000349464
0.000160192
8.82501e-05
5.53485e-05
3.81306e-05
2.82316e-05
2.22209e-05
1.85633e-05
1.65547e-05
1.58936e-05
1.64773e-05
1.82806e-05
2.12714e-05
2.53566e-05
3.03629e-05
3.60552e-05
4.21773e-05
4.84942e-05
5.48182e-05
6.10161e-05
6.70032e-05
7.27329e-05
7.81852e-05
8.3358e-05
8.82589e-05
9.29016e-05
9.73038e-05
0.000101487
0.000105477
0.000109298
0.000112967
0.000116487
0.000119839
0.000122995
0.000125919
0.000449176
0.000260823
0.000203014
0.00018365
0.000176385
0.000173777
0.000173319
0.000173901
0.000174934
0.000176102
0.000177184
0.000178014
0.000178458
0.000178436
0.00017792
0.000176927
0.000175508
0.000173734
0.00017168
0.000169423
0.000167033
0.000164569
0.00016208
0.000159606
0.000157172
0.000154793
0.000152467
0.000150188
0.000147952
0.000145785
0.000143756
0.000141982
0.000140568
0.000139583
0.000138593
0.000350383
0.000162144
9.49956e-05
7.05822e-05
6.53399e-05
6.98773e-05
7.91941e-05
9.03098e-05
0.000101516
0.000111964
0.000121328
0.000129551
0.000136695
0.00014285
0.000148102
0.000152531
0.000156207
0.000159215
0.00016163
0.000163531
0.000164993
0.000166091
0.000166893
0.000167461
0.00016785
0.000168104
0.00016826
0.000168349
0.000168403
0.000168454
0.00016854
0.000168688
0.000168916
0.000169138
0.000169464
0.000836219
0.000518915
0.000379726
0.000331674
0.000311523
0.000301429
0.000296082
0.000293266
0.000291906
0.000291409
0.000291416
0.000291689
0.000292044
0.000292334
0.000292449
0.000292318
0.000291897
0.000291177
0.000290169
0.000288904
0.00028742
0.000285761
0.000283972
0.000282094
0.000280163
0.000278208
0.000276254
0.000274319
0.000272418
0.000270567
0.000268779
0.000267098
0.000265478
0.00026421
0.000262237
0.000899897
0.000525683
0.000377697
0.000327011
0.000305811
0.000295401
0.000289912
0.000287136
0.000285947
0.000285719
0.000286115
0.000286947
0.000288098
0.000289493
0.000291081
0.000292824
0.000294692
0.000296662
0.000298713
0.000300831
0.000303001
0.000305213
0.000307455
0.000309715
0.000311982
0.000314249
0.00031652
0.000318805
0.000321112
0.000323429
0.000325707
0.000327872
0.00032987
0.000331622
0.000333916
0.000371236
0.000207289
0.000171432
0.000165901
0.000167746
0.000171434
0.000175439
0.000179309
0.000182857
0.00018604
0.000188834
0.000191204
0.000193115
0.000194536
0.000195452
0.000195873
0.00019583
0.000195371
0.000194559
0.00019346
0.000192141
0.000190663
0.000189079
0.000187432
0.000185757
0.000184077
0.00018241
0.00018077
0.00017918
0.000177675
0.000176309
0.000175117
0.000174142
0.000173131
0.000172513
0.000350595
0.000161995
9.58701e-05
7.29806e-05
6.91843e-05
7.46352e-05
8.42351e-05
9.51765e-05
0.000105991
0.000115999
0.000124972
0.000132898
0.000139896
0.000146103
0.000151646
0.000156636
0.000161171
0.000165329
0.000169172
0.00017275
0.000176102
0.000179258
0.00018224
0.000185065
0.000187743
0.000190284
0.000192698
0.000195004
0.00019723
0.000199402
0.000201533
0.000203594
0.000205521
0.000207218
0.000208722
0.000353894
0.000188834
0.000154788
0.000152035
0.000156332
0.000161958
0.00016746
0.000172429
0.000176745
0.000180297
0.000183084
0.000185078
0.000186238
0.000186557
0.000186079
0.000184892
0.000183109
0.000180856
0.000178256
0.000175424
0.000172456
0.000169426
0.000166386
0.000163377
0.000160417
0.000157517
0.000154693
0.000151993
0.000149505
0.000147328
0.000145494
0.000143827
0.000141868
0.000138802
0.000134132
0.000353626
0.000188804
0.00015474
0.000151543
0.000155389
0.000160684
0.000165956
0.000170766
0.00017497
0.000178444
0.000181181
0.000183142
0.000184281
0.000184591
0.000184114
0.000182935
0.000181168
0.000178935
0.000176358
0.000173549
0.0001706
0.000167587
0.000164567
0.000161592
0.00015869
0.000155867
0.000153107
0.00015038
0.00014767
0.000145016
0.000142555
0.00014052
0.000139176
0.000138512
0.000138299
0.000349445
0.000160103
8.81325e-05
5.52177e-05
3.79418e-05
2.78784e-05
2.15333e-05
1.72809e-05
1.42936e-05
1.21196e-05
1.05e-05
9.28252e-06
8.37879e-06
7.7422e-06
7.35591e-06
7.22578e-06
7.37518e-06
7.83969e-06
8.66037e-06
9.87582e-06
1.15141e-05
1.3586e-05
1.60807e-05
1.89657e-05
2.21893e-05
2.56872e-05
2.93893e-05
3.32277e-05
3.71431e-05
4.10878e-05
4.50273e-05
4.89379e-05
5.28006e-05
5.65938e-05
6.02621e-05
0.000378352
0.000216812
0.00018153
0.000176014
0.000177806
0.000181407
0.000185228
0.000188879
0.000192202
0.000195179
0.0001978
0.000200039
0.000201851
0.000203198
0.000204062
0.000204445
0.000204373
0.000203889
0.000203049
0.000201915
0.00020055
0.000199015
0.000197364
0.000195643
0.00019389
0.000192136
0.000190399
0.000188691
0.000187016
0.00018538
0.000183804
0.000182326
0.000181057
0.000179949
0.000179539
0.000356694
0.000180259
0.00013671
0.000131531
0.000136891
0.000144393
0.000151682
0.000158194
0.000163882
0.000168854
0.000173236
0.000177141
0.000180661
0.000183865
0.000186801
0.000189503
0.000191987
0.000194262
0.000196334
0.000198209
0.000199893
0.000201397
0.000202731
0.000203911
0.000204951
0.000205865
0.000206668
0.000207376
0.000208013
0.000208611
0.000209211
0.000209843
0.000210536
0.000211156
0.000212025
0.000380185
0.000208481
0.000165085
0.000152994
0.000150402
0.000151136
0.000153105
0.000155515
0.000158046
0.000160561
0.000163009
0.000165379
0.000167667
0.000169888
0.000172061
0.000174203
0.000176326
0.000178438
0.000180542
0.000182642
0.000184737
0.000186823
0.000188896
0.000190948
0.000192966
0.000194941
0.000196872
0.000198776
0.000200682
0.000202617
0.000204569
0.000206449
0.000208135
0.000209428
0.000210607
0.000863621
0.000531878
0.000387827
0.000338093
0.000316947
0.000306193
0.000300474
0.000297485
0.000296042
0.000295496
0.000295443
0.00029561
0.000295786
0.000295813
0.000295584
0.000295034
0.000294139
0.000292905
0.000291364
0.000289561
0.000287547
0.000285375
0.000283094
0.000280748
0.000278375
0.000276002
0.000273651
0.00027134
0.000269081
0.000266893
0.000264791
0.000262831
0.000260953
0.00025949
0.000257227
0.000844881
0.000516898
0.000373778
0.00032535
0.000305084
0.000294916
0.000289618
0.00028694
0.000285738
0.000285391
0.000285517
0.00028584
0.000286155
0.000286305
0.000286184
0.000285726
0.000284909
0.000283745
0.000282268
0.000280526
0.000278575
0.000276469
0.000274258
0.000271985
0.000269686
0.000267388
0.000265117
0.000262893
0.000260737
0.000258675
0.000256709
0.000254858
0.000252998
0.00025138
0.000248741
0.000356969
0.00018492
0.000146011
0.000142605
0.000148081
0.000155078
0.000161739
0.000167706
0.000172985
0.000177671
0.000181848
0.000185602
0.000189017
0.000192166
0.000195099
0.00019785
0.000200444
0.000202894
0.000205208
0.000207389
0.000209441
0.000211368
0.000213177
0.000214873
0.000216461
0.000217938
0.000219306
0.000220578
0.000221786
0.000222971
0.000224168
0.000225354
0.000226478
0.000227326
0.000228482
0.00034983
0.000160485
9.01135e-05
6.06994e-05
4.92787e-05
4.77388e-05
5.22978e-05
6.05002e-05
7.05196e-05
8.10581e-05
9.13082e-05
0.000100854
0.000109541
0.000117365
0.000124391
0.000130713
0.000136428
0.000141628
0.000146394
0.000150794
0.000154885
0.000158714
0.000162319
0.00016573
0.000168968
0.000172051
0.000174998
0.000177834
0.000180589
0.000183286
0.000185923
0.000188455
0.000190805
0.000192905
0.000194789
0.00035029
0.000161281
9.40484e-05
6.96781e-05
6.44436e-05
6.88501e-05
7.7879e-05
8.8632e-05
9.95123e-05
0.000109727
0.00011898
0.000127223
0.00013453
0.000141018
0.000146809
0.000152018
0.000156745
0.000161076
0.000165079
0.000168811
0.000172314
0.000175625
0.000178769
0.000181765
0.000184625
0.000187359
0.000189979
0.000192509
0.000194976
0.000197402
0.000199786
0.000202076
0.000204187
0.000206035
0.000207651
0.000352628
0.000170004
0.000119331
0.000111308
0.000117239
0.000126775
0.000136361
0.000144967
0.000152444
0.000158906
0.000164517
0.000169433
0.000173791
0.000177708
0.000181279
0.000184584
0.000187681
0.000190616
0.000193424
0.00019613
0.000198754
0.00020131
0.000203806
0.000206243
0.000208616
0.000210923
0.000213168
0.000215371
0.000217566
0.000219777
0.000221991
0.000224119
0.000226025
0.000227579
0.000228818
0.000349923
0.000161201
9.10788e-05
6.2092e-05
5.13525e-05
5.0637e-05
5.59616e-05
6.47307e-05
7.50862e-05
8.57731e-05
9.60435e-05
0.000105522
0.000114076
0.000121701
0.000128447
0.000134381
0.000139569
0.000144076
0.000147966
0.0001513
0.000154142
0.000156552
0.00015859
0.000160314
0.000161778
0.00016303
0.000164111
0.000165058
0.000165909
0.000166697
0.000167462
0.00016823
0.000169023
0.000169792
0.000170639
0.000351971
0.000170004
0.00011721
0.000107946
0.000114149
0.000124859
0.000135873
0.000145759
0.000154148
0.000160992
0.000166273
0.000170106
0.000172596
0.000173862
0.000174051
0.00017334
0.000171911
0.000169944
0.000167595
0.000164997
0.000162257
0.000159456
0.000156658
0.000153909
0.000151237
0.000148649
0.000146137
0.000143677
0.000141256
0.000138895
0.000136684
0.000134788
0.00013342
0.000132595
0.000132276
0.000352106
0.000170511
0.00011842
0.000109406
0.000115449
0.000125844
0.000136559
0.000146212
0.000154428
0.000161153
0.000166389
0.000170198
0.000172677
0.000173937
0.000174123
0.000173407
0.000171971
0.000169993
0.000167633
0.000165026
0.00016228
0.000159475
0.00015667
0.000153904
0.000151198
0.000148562
0.00014601
0.000143574
0.000141316
0.000139309
0.000137581
0.000136012
0.000134278
0.000131777
0.000128224
0.000349455
0.000160209
8.82333e-05
5.53016e-05
3.80117e-05
2.79544e-05
2.16476e-05
1.7484e-05
1.46673e-05
1.27939e-05
1.16736e-05
1.12431e-05
1.15166e-05
1.25479e-05
1.43932e-05
1.70779e-05
2.05723e-05
2.47852e-05
2.9574e-05
3.47685e-05
4.01967e-05
4.57065e-05
5.11777e-05
5.65248e-05
6.16952e-05
6.66595e-05
7.14037e-05
7.59285e-05
8.02439e-05
8.43645e-05
8.83057e-05
9.20781e-05
9.56815e-05
9.91034e-05
0.000102312
0.00034959
0.000160278
8.86941e-05
5.68115e-05
4.15246e-05
3.482e-05
3.35444e-05
3.61723e-05
4.16549e-05
4.90631e-05
5.75596e-05
6.6463e-05
7.5291e-05
8.37484e-05
9.1685e-05
9.90414e-05
0.000105819
0.00011205
0.000117776
0.000123057
0.000127947
0.000132495
0.000136742
0.000140725
0.000144475
0.000148018
0.000151377
0.000154579
0.000157656
0.000160634
0.000163518
0.000166285
0.000168883
0.00017126
0.000173418
0.000351454
0.000165466
0.000103659
8.65651e-05
8.86494e-05
9.85879e-05
0.000110763
0.000122631
0.000133257
0.000142431
0.000150211
0.000156722
0.000162087
0.00016641
0.000169786
0.000172305
0.000174063
0.000175161
0.000175705
0.0001758
0.000175545
0.000175029
0.000174327
0.000173502
0.000172607
0.000171678
0.000170746
0.000169828
0.000168935
0.000168077
0.000167265
0.000166518
0.000165891
0.00016536
0.000165267
0.000354719
0.000174169
0.00012409
0.00011672
0.000123644
0.000134189
0.000144563
0.00015362
0.000161208
0.000167503
0.000172672
0.00017684
0.000180074
0.000182449
0.000184026
0.000184878
0.00018509
0.000184762
0.000183998
0.000182899
0.000181556
0.000180048
0.00017844
0.000176783
0.000175113
0.000173456
0.000171827
0.000170242
0.000168718
0.00016729
0.000166005
0.000164897
0.000163984
0.000163064
0.000162321
0.000368443
0.000200468
0.000161349
0.00015287
0.000152618
0.000155021
0.000158321
0.000161843
0.000165287
0.000168528
0.000171528
0.000174283
0.000176799
0.000179083
0.000181134
0.000182944
0.000184508
0.000185821
0.00018689
0.000187724
0.000188341
0.000188764
0.000189019
0.000189132
0.000189127
0.000189025
0.000188845
0.000188607
0.000188338
0.000188078
0.000187879
0.000187777
0.000187817
0.000187764
0.000188127
0.000352195
0.000166783
0.000109154
9.58639e-05
9.9721e-05
0.000109569
0.00012067
0.000131187
0.000140557
0.000148707
0.000155762
0.000161908
0.000167313
0.000172116
0.000176423
0.000180315
0.000183856
0.000187089
0.000190049
0.000192762
0.000195251
0.000197537
0.000199641
0.00020158
0.00020337
0.000205019
0.000206537
0.000207943
0.000209268
0.000210552
0.000211827
0.00021308
0.000214259
0.000215238
0.000216201
0.000349485
0.000160426
8.84342e-05
5.5572e-05
3.85057e-05
2.89202e-05
2.34556e-05
2.06557e-05
1.98802e-05
2.08472e-05
2.34029e-05
2.73966e-05
3.26186e-05
3.87892e-05
4.55852e-05
5.26878e-05
5.98255e-05
6.67986e-05
7.34797e-05
7.98003e-05
8.57333e-05
9.12778e-05
9.64481e-05
0.000101266
0.000105755
0.00010994
0.000113848
0.000117508
0.000120947
0.000124195
0.000127277
0.000130208
0.000132983
0.000135584
0.00013799
0.000349584
0.000160677
8.89536e-05
5.67457e-05
4.09582e-05
3.35383e-05
3.13296e-05
3.28975e-05
3.73543e-05
4.39284e-05
5.18713e-05
6.05035e-05
6.92819e-05
7.78255e-05
8.58999e-05
9.3386e-05
0.000100234
0.000106436
0.000112012
0.000116988
0.000121409
0.000125331
0.000128806
0.000131888
0.000134629
0.000137078
0.000139278
0.000141274
0.000143103
0.000144807
0.00014642
0.000147971
0.000149473
0.000150904
0.000152295
0.000356274
0.000177836
0.000130749
0.000125309
0.000132846
0.000143138
0.000152892
0.000161298
0.000168345
0.000174207
0.000179043
0.000182965
0.000186033
0.00018829
0.000189792
0.000190602
0.000190799
0.000190473
0.000189718
0.000188628
0.000187289
0.000185777
0.000184156
0.000182478
0.000180785
0.000179105
0.000177458
0.000175853
0.000174292
0.000172777
0.000171328
0.000169979
0.000168827
0.000167847
0.000167501
0.000354851
0.000176463
0.000131426
0.000126412
0.000132827
0.000141501
0.00014977
0.000157042
0.000163336
0.000168793
0.000173575
0.000177804
0.000181595
0.000185041
0.000188222
0.000191204
0.00019403
0.000196735
0.000199342
0.000201868
0.000204323
0.000206713
0.000209041
0.000211304
0.000213497
0.000215614
0.000217657
0.000219639
0.000221589
0.000223541
0.000225499
0.00022741
0.000229169
0.000230614
0.000231846
0.000359665
0.000186571
0.000145902
0.000142148
0.000147924
0.000155393
0.000162414
0.000168503
0.000173712
0.000178164
0.000181952
0.000185124
0.000187697
0.00018968
0.000191086
0.000191941
0.000192286
0.000192181
0.000191695
0.0001909
0.000189867
0.000188658
0.000187332
0.000185933
0.000184496
0.000183049
0.000181607
0.000180188
0.000178811
0.000177511
0.00017634
0.000175335
0.000174534
0.000173723
0.000173244
0.000361164
0.000189864
0.000150872
0.000144563
0.000146517
0.000150529
0.000154896
0.000159096
0.000162985
0.000166552
0.00016983
0.000172866
0.000175702
0.000178379
0.000180934
0.000183399
0.000185798
0.000188149
0.000190467
0.000192762
0.000195045
0.000197321
0.000199593
0.000201856
0.000204099
0.000206311
0.000208501
0.000210703
0.00021297
0.000215328
0.000217719
0.000219963
0.000221828
0.000223186
0.000224289
0.000349511
0.000161099
8.90266e-05
5.59478e-05
3.85468e-05
2.84411e-05
2.21599e-05
1.81131e-05
1.55311e-05
1.40442e-05
1.3497e-05
1.3851e-05
1.51219e-05
1.73282e-05
2.04491e-05
2.43987e-05
2.90228e-05
3.41177e-05
3.94612e-05
4.48469e-05
5.01043e-05
5.51104e-05
5.97904e-05
6.41097e-05
6.80636e-05
7.16679e-05
7.49504e-05
7.79452e-05
8.06889e-05
8.32187e-05
8.55717e-05
8.77824e-05
8.98844e-05
9.18813e-05
9.38223e-05
0.000350583
0.000161741
9.56873e-05
7.31161e-05
6.9848e-05
7.5834e-05
8.58071e-05
9.69247e-05
0.000107776
0.000117765
0.000126716
0.000134652
0.000141678
0.000147917
0.000153494
0.000158514
0.000163075
0.000167257
0.000171128
0.000174745
0.000178155
0.000181396
0.000184499
0.000187483
0.00019036
0.000193136
0.000195826
0.000198459
0.000201074
0.000203701
0.000206319
0.000208828
0.000211087
0.000213008
0.000214685
0.000846855
0.00050238
0.00036178
0.00031522
0.00029569
0.000285913
0.00028086
0.000278387
0.000277402
0.000277281
0.000277673
0.000278353
0.000279158
0.000279959
0.000280653
0.000281165
0.000281442
0.00028146
0.000281216
0.000280726
0.000280015
0.000279117
0.000278068
0.000276903
0.000275652
0.000274345
0.000273007
0.000271661
0.00027033
0.000269041
0.000267805
0.000266648
0.000265475
0.000264484
0.000262582
0.000349776
0.000160433
8.97771e-05
5.97955e-05
4.75318e-05
4.49389e-05
4.83892e-05
5.55976e-05
6.48497e-05
7.48818e-05
8.48631e-05
9.43242e-05
0.000103056
0.000111003
0.000118192
0.000124695
0.000130595
0.000135973
0.000140903
0.000145451
0.00014967
0.000153608
0.0001573
0.000160778
0.000164062
0.000167172
0.000170127
0.000172948
0.000175665
0.000178304
0.000180869
0.000183331
0.000185633
0.000187709
0.000189573
0.000349448
0.000160143
8.81908e-05
5.52728e-05
3.79885e-05
2.7917e-05
2.15642e-05
1.73029e-05
1.4303e-05
1.21095e-05
1.04583e-05
9.18959e-06
8.20427e-06
7.44121e-06
6.86464e-06
6.45738e-06
6.217e-06
6.15358e-06
6.28812e-06
6.65082e-06
7.27858e-06
8.21168e-06
9.48954e-06
1.1146e-05
1.32043e-05
1.56735e-05
1.85447e-05
2.17906e-05
2.53672e-05
2.92178e-05
3.32792e-05
3.74874e-05
4.17801e-05
4.60963e-05
5.03487e-05
0.000353323
0.000172795
0.000125285
0.000118935
0.000125096
0.000134122
0.000142974
0.000150851
0.000157675
0.000163579
0.00016873
0.00017328
0.000177355
0.000181055
0.000184462
0.00018764
0.000190639
0.000193499
0.000196251
0.00019892
0.000201526
0.000204087
0.000206612
0.000209103
0.000211554
0.00021396
0.000216327
0.000218691
0.000221101
0.000223587
0.000226104
0.00022849
0.000230528
0.000232091
0.000233325
0.000350065
0.000160964
9.15378e-05
6.37264e-05
5.44409e-05
5.51395e-05
6.1507e-05
7.08024e-05
8.12033e-05
9.16107e-05
0.000101431
0.000110423
0.000118531
0.000125805
0.000132331
0.000138205
0.00014352
0.000148355
0.00015278
0.00015685
0.000160611
0.0001641
0.000167347
0.000170376
0.000173207
0.000175856
0.00017834
0.00018068
0.000182905
0.000185044
0.000187117
0.000189116
0.000191006
0.000192714
0.000194275
0.000492469
0.0002947
0.000225854
0.000201296
0.000191509
0.000187448
0.00018606
0.000186028
0.000186683
0.000187671
0.000188784
0.000189874
0.000190828
0.000191558
0.000192006
0.000192136
0.000191943
0.000191441
0.000190664
0.000189652
0.000188453
0.000187112
0.000185671
0.000184166
0.000182628
0.000181077
0.000179533
0.000178012
0.000176534
0.000175127
0.000173822
0.000172643
0.00017157
0.00017053
0.000169327
0.000883244
0.000533522
0.000384411
0.000331467
0.000309191
0.000298227
0.00029241
0.000289418
0.000288089
0.000287777
0.000288124
0.000288921
0.000290043
0.000291412
0.000292977
0.000294699
0.000296552
0.00029851
0.000300556
0.000302672
0.000304844
0.00030706
0.000309306
0.000311571
0.000313843
0.000316116
0.000318393
0.000320681
0.000322981
0.000325276
0.000327512
0.000329628
0.000331583
0.000333332
0.000335584
0.000349885
0.000160642
9.0074e-05
6.02292e-05
4.8201e-05
4.5938e-05
4.97455e-05
5.72772e-05
6.67974e-05
7.70438e-05
8.72096e-05
9.68355e-05
0.000105713
0.000113789
0.000121089
0.000127678
0.000133633
0.000139034
0.000143958
0.000148472
0.000152637
0.000156504
0.000160116
0.000163506
0.000166698
0.00016971
0.000172559
0.000175269
0.000177873
0.000180404
0.000182873
0.000185246
0.000187455
0.000189425
0.000191217
0.000349643
0.00016181
8.96878e-05
5.6804e-05
4.00025e-05
3.11384e-05
2.70243e-05
2.63287e-05
2.83755e-05
3.26062e-05
3.83795e-05
4.49928e-05
5.17927e-05
5.82724e-05
6.41072e-05
6.91356e-05
7.33164e-05
7.66856e-05
7.93224e-05
8.13256e-05
8.27983e-05
8.38388e-05
8.45358e-05
8.4966e-05
8.51934e-05
8.52702e-05
8.5238e-05
8.51304e-05
8.49767e-05
8.48047e-05
8.46421e-05
8.45115e-05
8.44259e-05
8.43496e-05
8.42976e-05