/*--------------------------------*- C++ -*----------------------------------*\
| =========                 |                                                 |
| \\      /  F ield         | OpenFOAM: The Open Source CFD Toolbox           |
|  \\    /   O peration     | Version:  2.4.x                                 |
|   \\  /    A nd           | Web:      www.OpenFOAM.org                      |
|    \\/     M anipulation  |                                                 |
\*---------------------------------------------------------------------------*/
FoamFile
{
    version     2.0;
    format      ascii;
    class       volScalarField;
    location    "9980/coolant";
    object      mut;
}
// * * * * * * * * * * * * * * * * * * * * * * * * * * * * * * * * * * * * * //

dimensions      [1 -1 -1 0 0 0 0];

internalField   nonuniform List<scalar> 
109760
(
0.00166908
0.0011465
0.000893008
0.000753796
0.000672562
0.000627867
0.00061362
0.000631602
0.000686609
0.000781877
0.000917094
0.00108982
0.00129626
0.00153059
0.00178527
0.00205255
0.00232559
0.00259899
0.00286873
0.00313197
0.00338687
0.00363237
0.00386802
0.00409373
0.00430958
0.00451571
0.0047124
0.00490023
0.00508022
0.00525363
0.00542139
0.00558314
0.00573689
0.00587961
0.00601088
0.00167389
0.0011589
0.000950125
0.000918914
0.00102159
0.00121318
0.0014501
0.00170716
0.0019698
0.00222802
0.00247518
0.00270795
0.00292504
0.0031263
0.00331226
0.00348383
0.0036421
0.0037882
0.00392325
0.00404834
0.00416452
0.00427279
0.00437405
0.004469
0.00455809
0.0046416
0.00471986
0.00479371
0.0048646
0.00493418
0.00500309
0.0050696
0.00512966
0.00517841
0.00521933
0.00110524
0.0007382
0.000686753
0.000692482
0.000710173
0.000731501
0.000752979
0.000773031
0.000790992
0.000806742
0.000820253
0.000831457
0.000840308
0.000846789
0.000850966
0.000852982
0.000853056
0.000851459
0.000848488
0.000844439
0.000839591
0.000834186
0.000828431
0.000822485
0.000816467
0.00081045
0.00080448
0.000798605
0.000792922
0.000787611
0.000782966
0.000779146
0.000776461
0.000773073
0.000772493
0.00162523
0.00114829
0.00106802
0.00114252
0.0012707
0.00141234
0.00155046
0.00167793
0.00179251
0.00189438
0.00198476
0.002065
0.0021365
0.00220058
0.00225836
0.00231078
0.00235865
0.00240266
0.0024434
0.0024814
0.00251711
0.00255096
0.00258326
0.00261419
0.00264372
0.00267177
0.00269845
0.00272434
0.00275051
0.00277795
0.00280647
0.00283367
0.00285561
0.00286872
0.00287631
0.00102583
0.000661068
0.000607604
0.000612266
0.000629473
0.000649975
0.000670389
0.000689312
0.0007065
0.000722018
0.000736036
0.000748747
0.000760337
0.000770977
0.000780815
0.000789961
0.000798488
0.000806441
0.000813845
0.000820719
0.000827079
0.000832943
0.000838333
0.000843274
0.00084779
0.000851906
0.000855644
0.000859048
0.000862202
0.00086524
0.000868352
0.000871612
0.00087527
0.000878171
0.000883401
0.00167174
0.00115319
0.000934255
0.000883276
0.00095964
0.00112837
0.00135023
0.00159899
0.00185851
0.00211736
0.00236787
0.00260556
0.00282832
0.00303554
0.00322755
0.00340517
0.00356945
0.00372153
0.00386257
0.00399366
0.00411586
0.00423019
0.00433752
0.00443855
0.00453376
0.0046235
0.00470827
0.00478909
0.00486749
0.00494491
0.00502144
0.00509454
0.00515951
0.00521177
0.00525418
0.00166884
0.00114407
0.000889674
0.000748591
0.000662281
0.000605292
0.000565372
0.000536073
0.000513745
0.0004962
0.00048206
0.000470431
0.000460714
0.000452511
0.00044557
0.000439761
0.000435074
0.000431622
0.000429665
0.000429633
0.000432157
0.000438085
0.000448492
0.000464671
0.000488123
0.000520566
0.000564001
0.000620813
0.00069383
0.000786226
0.000901254
0.00104188
0.00121034
0.00140766
0.00163049
0.00167517
0.001169
0.000996234
0.001021
0.00116681
0.00137002
0.00159602
0.0018276
0.00205436
0.00227006
0.00247146
0.00265761
0.00282872
0.00298561
0.00312935
0.00326109
0.00338195
0.00349295
0.00359499
0.00368886
0.00377529
0.00385491
0.00392832
0.00399604
0.00405851
0.00411615
0.00416937
0.00421876
0.00426518
0.00430969
0.00435327
0.00439599
0.0044369
0.0044726
0.00450524
0.0016689
0.00114554
0.000891288
0.000750242
0.000663892
0.000606891
0.0005671
0.00053825
0.00051702
0.000501797
0.000492153
0.000488647
0.000492744
0.000506702
0.000533301
0.000575467
0.000636024
0.000717771
0.000823556
0.000955797
0.00111562
0.00130224
0.00151288
0.00174327
0.00198836
0.00224305
0.00250278
0.00276391
0.00302383
0.00328098
0.0035346
0.00378435
0.00402976
0.00426976
0.00450125
0.00156877
0.00110884
0.00104682
0.00111857
0.00122602
0.00133787
0.00144304
0.00153757
0.00162007
0.00169042
0.00174842
0.00179424
0.00182818
0.00185092
0.00186359
0.00186757
0.00186442
0.00185568
0.00184275
0.00182681
0.00180894
0.00178994
0.00177045
0.00175098
0.00173185
0.00171319
0.00169488
0.00167659
0.001658
0.0016392
0.00162123
0.00160637
0.00159822
0.00159779
0.00160757
0.00160331
0.00114268
0.0010813
0.00115694
0.00127148
0.00139133
0.00150367
0.0016042
0.0016918
0.00176658
0.00182857
0.00187778
0.00191451
0.00193944
0.00195363
0.00195852
0.00195573
0.0019469
0.00193356
0.00191707
0.00189854
0.00187884
0.00185862
0.0018383
0.0018181
0.00179807
0.00177826
0.00175898
0.00174106
0.00172581
0.00171453
0.00170699
0.00170023
0.0016849
0.00165588
0.00151283
0.00107193
0.00103197
0.00111013
0.00121052
0.00130826
0.00139633
0.00147291
0.00153901
0.00159537
0.00164229
0.00167985
0.00170825
0.00172789
0.00173952
0.00174414
0.00174286
0.00173685
0.0017272
0.00171491
0.0017008
0.00168558
0.00166978
0.00165384
0.00163806
0.0016226
0.00160745
0.00159246
0.0015774
0.0015623
0.00154773
0.00153509
0.00152696
0.00152368
0.00153005
0.00153841
0.00108524
0.00103417
0.0011079
0.00121051
0.00131391
0.00140809
0.00149047
0.00156189
0.00162304
0.00167416
0.00171539
0.00174693
0.00176919
0.0017829
0.00178904
0.00178878
0.00178336
0.00177398
0.00176173
0.00174754
0.00173215
0.00171615
0.00169994
0.00168378
0.00166776
0.00165194
0.00163646
0.00162174
0.0016086
0.00159807
0.00159056
0.00158539
0.00157691
0.00156484
0.000833454
0.000579787
0.000515907
0.000496791
0.000492841
0.000495012
0.000499633
0.000505035
0.000510577
0.000516038
0.000521314
0.000526371
0.000531208
0.000535843
0.000540299
0.000544593
0.000548731
0.000552709
0.000556518
0.000560146
0.000563585
0.000566825
0.000569865
0.000572702
0.000575338
0.000577776
0.00058002
0.000582093
0.000584035
0.000585913
0.000587811
0.000589749
0.000591796
0.000593419
0.000595848
0.00167277
0.00116209
0.000965369
0.00095261
0.00106895
0.00126174
0.00149126
0.0017353
0.00197986
0.00221588
0.0024381
0.00264399
0.00283264
0.00300393
0.00315816
0.00329579
0.00341746
0.00352403
0.00361655
0.00369627
0.00376455
0.00382285
0.00387261
0.00391521
0.0039519
0.00398376
0.00401171
0.00403653
0.00405907
0.0040803
0.00410149
0.00412379
0.00414818
0.00417251
0.00419845
0.00167375
0.00117364
0.00102272
0.00106927
0.00122041
0.00141673
0.00163003
0.00184479
0.00205156
0.00224535
0.00242409
0.00258747
0.00273609
0.00287094
0.00299316
0.00310378
0.00320372
0.00329378
0.00337471
0.00344722
0.00351201
0.00356981
0.00362132
0.00366725
0.00370828
0.00374502
0.00377803
0.00380791
0.00383533
0.00386119
0.00388654
0.00391211
0.00393838
0.00396289
0.00398895
0.00166963
0.00119789
0.00111888
0.00122154
0.00138946
0.00157364
0.0017546
0.00192401
0.00207885
0.00221838
0.00234353
0.00245558
0.00255596
0.00264617
0.00272755
0.00280134
0.00286864
0.00293032
0.00298707
0.00303948
0.00308803
0.00313313
0.00317511
0.00321424
0.0032507
0.00328462
0.00331618
0.00334575
0.00337398
0.00340168
0.00342946
0.00345701
0.00348305
0.0035042
0.0035231
0.00158179
0.00111086
0.00103293
0.00109414
0.00119811
0.0013105
0.0014189
0.00151821
0.00160689
0.00168515
0.00175387
0.00181409
0.00186682
0.00191291
0.00195301
0.00198762
0.00201718
0.00204211
0.00206283
0.00207981
0.00209351
0.00210442
0.00211299
0.00211966
0.00212481
0.00212872
0.00213165
0.00213382
0.00213554
0.00213727
0.00213972
0.00214349
0.00214932
0.00215467
0.0021647
0.000621077
0.000410682
0.00036056
0.000346193
0.000343604
0.000345385
0.00034877
0.000352708
0.00035677
0.000360766
0.000364608
0.000368262
0.000371728
0.000375022
0.000378162
0.000381156
0.000384009
0.000386719
0.00038928
0.000391687
0.000393935
0.000396026
0.000397966
0.000399762
0.000401418
0.000402934
0.000404311
0.000405565
0.000406738
0.000407892
0.000409084
0.000410286
0.000411465
0.000412218
0.000413443
0.00167245
0.00115825
0.000961871
0.000951075
0.00106793
0.0012586
0.00148523
0.00172754
0.00197249
0.0022111
0.00243787
0.00265003
0.00284665
0.00302792
0.00319469
0.00334805
0.00348923
0.00361944
0.00373984
0.00385153
0.00395554
0.00405281
0.00414417
0.00423022
0.00431136
0.00438782
0.00446006
0.00452906
0.0045964
0.00466351
0.00473033
0.00479404
0.00484961
0.00489237
0.00492585
0.00110241
0.000719543
0.000664278
0.000672863
0.000694026
0.000717425
0.00073994
0.000760294
0.000778582
0.000795009
0.000809844
0.000823319
0.000835638
0.000846995
0.000857567
0.000867502
0.000876907
0.000885857
0.000894399
0.000902562
0.000910364
0.000917813
0.000924916
0.000931671
0.000938072
0.000944107
0.000949777
0.000955126
0.000960258
0.000965333
0.000970521
0.00097578
0.000981139
0.000985264
0.000991157
0.00167312
0.0011753
0.00101592
0.00105851
0.00121892
0.00143075
0.00166099
0.00189205
0.00211202
0.0023127
0.00248791
0.00263456
0.00275228
0.00284223
0.00290685
0.00294936
0.00297338
0.00298246
0.0029799
0.00296855
0.0029508
0.0029286
0.00290355
0.0028769
0.00284952
0.00282187
0.00279389
0.00276515
0.0027352
0.00270441
0.00267493
0.0026512
0.00263933
0.00264263
0.00265878
0.0016734
0.00117595
0.00101764
0.00106279
0.00122643
0.00144063
0.00167201
0.0019034
0.0021233
0.00232376
0.00249887
0.00264549
0.00276324
0.00285325
0.00291793
0.00296048
0.00298449
0.00299353
0.0029909
0.00297949
0.00296172
0.00293952
0.00291443
0.0028875
0.0028594
0.00283051
0.00280122
0.00277243
0.00274582
0.00272368
0.00270768
0.00269618
0.00268165
0.00264865
0.00258225
0.00140059
0.000963562
0.000923194
0.000982716
0.00105999
0.00113652
0.00120671
0.00126865
0.00132192
0.00136626
0.00140193
0.00142919
0.00144817
0.00145927
0.00146322
0.00146098
0.00145367
0.00144236
0.00142811
0.00141189
0.00139448
0.00137647
0.00135825
0.00134009
0.00132208
0.0013042
0.00128653
0.00126949
0.00125407
0.00124157
0.00123286
0.00122662
0.00121815
0.00119711
0.00115692
0.00133374
0.000894687
0.000848051
0.000895049
0.000959285
0.00102413
0.00108421
0.00113747
0.00118329
0.00122142
0.00125207
0.00127534
0.00129135
0.00130044
0.00130326
0.00130065
0.0012936
0.00128305
0.00126995
0.00125511
0.00123919
0.00122269
0.00120605
0.0011896
0.00117354
0.00115788
0.00114244
0.00112683
0.00111075
0.00109441
0.00107905
0.00106706
0.00106178
0.00106376
0.00107327
0.00166901
0.00114637
0.000892572
0.000752305
0.000668208
0.00061703
0.000590013
0.000585975
0.000608171
0.000661622
0.000750349
0.000876113
0.00103894
0.00123702
0.00146572
0.00171785
0.00198522
0.00226026
0.00253693
0.00281082
0.00307897
0.00333949
0.0035913
0.00383384
0.00406687
0.0042903
0.00450425
0.00470916
0.00490584
0.0050954
0.00527874
0.00545573
0.0056248
0.00578325
0.00592998
0.000893048
0.000609261
0.000553991
0.000542697
0.000544173
0.000550923
0.000559599
0.000568575
0.000576952
0.000584381
0.000590583
0.000595316
0.000598378
0.000599687
0.000599293
0.00059735
0.000594079
0.000589732
0.000584559
0.000578792
0.000572638
0.000566268
0.000559824
0.000553417
0.000547121
0.000540961
0.000534911
0.00052891
0.000522917
0.000516999
0.000511445
0.000506762
0.000503659
0.000502042
0.000502181
0.00167283
0.00116289
0.000968648
0.000958345
0.00107491
0.0012668
0.00149639
0.00174122
0.00198633
0.00222214
0.00244331
0.00264734
0.00283325
0.00300083
0.00315026
0.00328202
0.00339687
0.0034959
0.00358041
0.00365191
0.00371201
0.00376234
0.00380448
0.00383991
0.00386989
0.00389552
0.00391769
0.00393717
0.00395476
0.00397148
0.00398861
0.00400735
0.00402862
0.00404998
0.00407205
0.0010345
0.000814923
0.000697114
0.000651515
0.000631413
0.000621099
0.000615566
0.000612631
0.00061121
0.000610689
0.000610696
0.000610982
0.000611354
0.000611657
0.000611778
0.00061164
0.0006112
0.000610446
0.000609389
0.000608058
0.000606494
0.000604742
0.000602846
0.00060085
0.00059879
0.000596698
0.000594601
0.000592515
0.000590454
0.000588434
0.000586468
0.000584612
0.00058283
0.000581469
0.000579381
0.00084057
0.00064245
0.000544565
0.000506709
0.000490009
0.000481597
0.000477102
0.000474812
0.000473828
0.000473639
0.000473967
0.000474655
0.000475606
0.000476756
0.000478062
0.000479491
0.000481019
0.000482624
0.000484289
0.000486002
0.000487752
0.000489529
0.000491325
0.00049313
0.000494932
0.000496725
0.000498507
0.000500291
0.000502094
0.00050392
0.000505735
0.000507469
0.000509035
0.00051032
0.000511909
0.0014711
0.00102816
0.000977031
0.00103048
0.00110432
0.00117771
0.00124492
0.00130434
0.00135574
0.00139976
0.00143701
0.00146794
0.00149284
0.00151201
0.0015258
0.00153467
0.00153919
0.00154002
0.00153782
0.00153326
0.00152695
0.0015194
0.00151105
0.00150225
0.00149323
0.00148416
0.00147512
0.00146619
0.00145754
0.0014495
0.00144263
0.00143736
0.00143436
0.00143073
0.00143194
0.00167353
0.00116377
0.000980924
0.000990273
0.00112301
0.00132014
0.00154668
0.00178411
0.0020202
0.00224698
0.00246005
0.00265756
0.00283945
0.00300646
0.00315959
0.00330009
0.00342925
0.00354827
0.00365819
0.00375991
0.00385423
0.00394185
0.0040234
0.00409937
0.00417017
0.00423611
0.0042976
0.00435527
0.00441009
0.0044632
0.00451533
0.00456594
0.00461304
0.00465286
0.00468646
0.00148738
0.00104334
0.000998856
0.00106647
0.00115758
0.00124936
0.00133435
0.00140986
0.00147513
0.00152965
0.00157376
0.00160766
0.00163161
0.00164615
0.0016522
0.00165093
0.0016437
0.00163183
0.00161656
0.00159898
0.00157999
0.00156026
0.00154022
0.00152023
0.00150039
0.00148067
0.00146118
0.00144241
0.00142552
0.00141205
0.00140297
0.00139663
0.00138732
0.00136307
0.00131541
0.00146305
0.00101455
0.000965988
0.00102816
0.00111358
0.00119999
0.00128006
0.00135115
0.00141249
0.00146369
0.00150505
0.00153674
0.001559
0.00157235
0.00157766
0.00157607
0.00156886
0.00155725
0.00154245
0.00152544
0.00150706
0.00148794
0.00146859
0.00144945
0.00143079
0.00141261
0.00139464
0.0013764
0.00135751
0.00133823
0.00132016
0.00130636
0.00130099
0.00130502
0.00131778
0.0016689
0.00114589
0.0008917
0.000750675
0.000664331
0.000607314
0.000567465
0.00053846
0.000516873
0.000500898
0.000489783
0.000483585
0.000483073
0.000489683
0.000505418
0.000532688
0.000574103
0.000632375
0.000710327
0.000810776
0.00093603
0.0010872
0.00126376
0.00146352
0.00168303
0.00191816
0.00216467
0.00241877
0.00267746
0.00293862
0.00320102
0.00346399
0.003727
0.003989
0.00424683
0.00145276
0.00103109
0.00099028
0.00104847
0.00112359
0.00119631
0.00126097
0.00131725
0.00136543
0.00140646
0.00144116
0.00147002
0.00149329
0.0015112
0.00152406
0.0015323
0.00153644
0.00153706
0.00153477
0.00153019
0.00152387
0.00151631
0.00150793
0.00149908
0.00149002
0.00148096
0.00147201
0.00146321
0.00145453
0.00144598
0.0014377
0.00143002
0.00142414
0.0014193
0.00142211
0.00160886
0.00113782
0.00106266
0.00113324
0.00124874
0.00137259
0.00149137
0.00160011
0.0016974
0.00178364
0.00185985
0.00192727
0.00198706
0.00204022
0.00208762
0.00212989
0.00216754
0.00220098
0.00223056
0.00225661
0.00227946
0.00229943
0.00231687
0.00233209
0.00234539
0.00235704
0.00236726
0.00237629
0.00238444
0.00239216
0.00240009
0.00240871
0.00241859
0.00242775
0.00244017
0.00103234
0.000666257
0.000613269
0.000623311
0.000647848
0.000675302
0.000701941
0.000726405
0.000748369
0.000767918
0.000785383
0.000801078
0.00081526
0.000828213
0.000840191
0.000851403
0.000862015
0.00087215
0.000881903
0.000891346
0.000900529
0.000909486
0.000918232
0.000926754
0.000935013
0.00094297
0.000950633
0.000958119
0.000965645
0.000973424
0.000981468
0.000989286
0.000996101
0.00100062
0.0010038
0.000919869
0.000721889
0.000616429
0.000575549
0.00055726
0.000547724
0.000542585
0.00053988
0.000538569
0.000538071
0.000538024
0.000538175
0.000538335
0.00053836
0.000538152
0.000537651
0.000536834
0.000535708
0.000534297
0.000532641
0.000530785
0.000528776
0.000526659
0.000524473
0.000522252
0.000520023
0.000517806
0.000515615
0.000513458
0.000511351
0.000509311
0.0005074
0.000505585
0.00050422
0.000502142
0.000988549
0.000773219
0.000657517
0.000613445
0.000594033
0.000584049
0.000578779
0.000576098
0.00057489
0.00057454
0.000574667
0.000574992
0.000575308
0.00057546
0.000575338
0.000574877
0.000574055
0.000572881
0.000571388
0.000569622
0.000567638
0.000565488
0.000563223
0.000560885
0.00055851
0.000556125
0.000553754
0.000551418
0.000549142
0.000546959
0.000544887
0.000542966
0.000541069
0.000539444
0.000536687
0.00160151
0.00115473
0.00110798
0.00119066
0.00130745
0.00142664
0.00153821
0.00163921
0.00172925
0.00180899
0.00187937
0.00194154
0.0019967
0.00204595
0.00209015
0.00213
0.00216605
0.00219876
0.00222846
0.00225544
0.00227998
0.00230233
0.00232276
0.0023415
0.00235869
0.0023744
0.00238869
0.00240173
0.00241397
0.0024261
0.00243873
0.00245166
0.00246414
0.00247284
0.00248424
0.00167094
0.00115055
0.000918651
0.000839204
0.000875488
0.00100955
0.00121286
0.00145692
0.00172157
0.0019922
0.00225842
0.00251381
0.0027551
0.00298108
0.00319165
0.00338744
0.00356937
0.0037385
0.00389588
0.00404255
0.0041795
0.00430765
0.00442784
0.00454074
0.00464688
0.00474669
0.00484072
0.00492986
0.00501541
0.00509864
0.00517994
0.00525775
0.00532874
0.00538888
0.00544049
0.00167227
0.00115833
0.000962911
0.000954351
0.00107384
0.00126567
0.00149139
0.00173101
0.0019719
0.00220546
0.00242667
0.00263306
0.00282397
0.00299979
0.00316141
0.00331005
0.00344698
0.0035734
0.00369042
0.00379902
0.00390009
0.00399442
0.00408266
0.00416535
0.00424287
0.00431553
0.00438376
0.00444831
0.00451033
0.00457093
0.00463048
0.00468757
0.00473922
0.00478153
0.0048163
0.00164735
0.00116401
0.001075
0.00115841
0.00130483
0.00146878
0.00163051
0.00178139
0.00191835
0.00204105
0.00215035
0.00224759
0.00233424
0.00241178
0.00248157
0.00254481
0.0026025
0.0026555
0.00270451
0.00275009
0.00279277
0.00283294
0.00287091
0.00290686
0.00294089
0.00297302
0.00300344
0.00303261
0.00306132
0.00309032
0.00311966
0.00314791
0.0031724
0.00318994
0.00320202
0.00167145
0.00115484
0.000927176
0.000855485
0.000903031
0.00104712
0.00125542
0.00150022
0.00176305
0.00203033
0.00229222
0.00254246
0.00277767
0.00299629
0.00319773
0.00338194
0.00354911
0.0036997
0.00383443
0.00395427
0.0040604
0.00415417
0.00423702
0.00431039
0.00437565
0.00443403
0.00448663
0.00453443
0.00457842
0.00461974
0.00465971
0.00469954
0.0047403
0.00478011
0.00482214
0.00165963
0.00118691
0.00109935
0.00119221
0.00135431
0.001538
0.0017217
0.00189422
0.00204999
0.00218586
0.00229972
0.00239141
0.00246146
0.00251119
0.00254271
0.00255864
0.00256183
0.00255504
0.00254081
0.00252125
0.0024981
0.00247273
0.00244624
0.0024195
0.00239302
0.00236701
0.00234128
0.00231525
0.00228842
0.00226097
0.00223477
0.00221381
0.00220376
0.00220742
0.00222379
0.00165939
0.00118938
0.00110611
0.0011981
0.00135673
0.00153734
0.00171869
0.00188931
0.0020434
0.00217798
0.00229106
0.00238222
0.00245189
0.00250136
0.00253269
0.00254845
0.00255146
0.00254451
0.00253012
0.00251047
0.00248733
0.00246206
0.00243563
0.00240874
0.00238171
0.00235466
0.00232778
0.00230176
0.00227811
0.00225895
0.00224573
0.00223676
0.00222487
0.00219497
0.00213408
0.00166896
0.00114644
0.000892381
0.000751423
0.000665253
0.000608929
0.000570961
0.000546234
0.000533383
0.000533827
0.000551225
0.000590644
0.000657162
0.000754579
0.00088519
0.00104998
0.00124799
0.00147559
0.00172677
0.00199425
0.00227082
0.00255034
0.00282814
0.00310099
0.00336693
0.00362479
0.00387397
0.00411438
0.00434628
0.00457028
0.00478716
0.0049974
0.00520076
0.0053959
0.00558125
0.00166975
0.0011476
0.000899746
0.000779063
0.000740189
0.000774129
0.000878509
0.00104263
0.00125135
0.00149162
0.00175194
0.00202183
0.00229285
0.0025589
0.00281602
0.00306181
0.0032951
0.00351552
0.00372314
0.00391853
0.00410235
0.00427537
0.00443837
0.00459203
0.00473696
0.00487366
0.00500272
0.00512506
0.00524194
0.00535475
0.00546415
0.00556909
0.00566675
0.00575339
0.00583058
0.00167618
0.0011858
0.00104959
0.00112565
0.00131658
0.00154973
0.00179077
0.00202407
0.00224199
0.00244097
0.00261969
0.00277782
0.00291555
0.00303338
0.0031322
0.0032132
0.00327796
0.00332833
0.00336633
0.00339399
0.00341328
0.00342598
0.00343364
0.00343761
0.00343897
0.0034386
0.00343716
0.00343507
0.00343262
0.00342997
0.00342746
0.00342556
0.00342577
0.00342776
0.0034392
0.00166304
0.00119596
0.00111687
0.00121127
0.0013704
0.00154661
0.0017185
0.00187615
0.00201625
0.0021387
0.00224414
0.00233335
0.00240705
0.00246599
0.00251115
0.00254378
0.00256542
0.00257775
0.00258253
0.00258142
0.00257591
0.00256726
0.00255654
0.00254454
0.00253185
0.00251886
0.00250579
0.00249284
0.00248031
0.00246884
0.00245944
0.00245302
0.00245025
0.00244766
0.00244638
0.00132025
0.000874283
0.000808884
0.000837201
0.000886158
0.000938552
0.000988767
0.00103465
0.00107554
0.00111151
0.00114302
0.00117055
0.00119456
0.00121542
0.00123343
0.00124879
0.00126167
0.00127227
0.00128079
0.00128746
0.0012925
0.00129618
0.00129871
0.00130033
0.00130121
0.00130151
0.00130135
0.00130083
0.00130014
0.00129957
0.00129959
0.00130052
0.00130293
0.00130459
0.00131059
0.00167397
0.001189
0.00108151
0.00117307
0.00135001
0.00155422
0.001762
0.0019621
0.00214898
0.00232032
0.00247554
0.00261575
0.00274225
0.00285643
0.00295947
0.00305255
0.00313664
0.00321261
0.00328117
0.00334301
0.00339878
0.00344912
0.00349466
0.00353598
0.00357354
0.00360767
0.00363863
0.00366684
0.00369306
0.0037184
0.00374383
0.00376932
0.00379364
0.00381329
0.00383069
0.00166913
0.00114759
0.000894153
0.00075554
0.000675893
0.000634512
0.000626106
0.000652713
0.000718316
0.000824959
0.000972216
0.00115835
0.00137968
0.00162954
0.00189896
0.00217861
0.00246043
0.00273848
0.00300888
0.00326936
0.00351869
0.00375636
0.00398228
0.0041966
0.00439962
0.00459177
0.00477358
0.00494573
0.00510926
0.00526545
0.00541554
0.00556021
0.00569905
0.00583019
0.00595269
0.00166972
0.0011495
0.000900595
0.000775272
0.000726292
0.00074329
0.000825973
0.000968908
0.00116064
0.00138951
0.00164445
0.00191437
0.0021894
0.00246185
0.00272623
0.00297897
0.0032178
0.00344139
0.00364916
0.003841
0.00401738
0.00417921
0.00432754
0.00446358
0.00458862
0.00470389
0.00481055
0.0049097
0.00500253
0.00509035
0.0051746
0.00525643
0.00533656
0.00541354
0.00548845
0.00165828
0.0011984
0.00113065
0.00122993
0.00138698
0.00155515
0.00171528
0.00186024
0.00198819
0.00209947
0.00219493
0.00227538
0.0023415
0.00239409
0.00243413
0.00246283
0.00248161
0.00249199
0.00249553
0.0024937
0.00248784
0.00247909
0.0024684
0.00245654
0.00244411
0.00243153
0.00241906
0.0024068
0.00239471
0.00238277
0.00237122
0.00236066
0.00235285
0.00234782
0.00235213
0.00162534
0.00115505
0.00108606
0.00117284
0.00130883
0.00145282
0.0015895
0.00171371
0.00182454
0.00192261
0.00200927
0.00208572
0.00215357
0.00221418
0.00226869
0.00231812
0.00236327
0.00240482
0.00244331
0.00247915
0.0025127
0.00254424
0.00257398
0.00260206
0.00262854
0.00265343
0.00267684
0.00269906
0.00272067
0.00274235
0.00276446
0.00278632
0.00280629
0.0028213
0.00283274
0.00161709
0.00116016
0.00109787
0.00117584
0.00129384
0.00141691
0.00153183
0.00163472
0.00172456
0.00180222
0.00186869
0.00192482
0.0019712
0.00200841
0.00203707
0.0020579
0.00207179
0.00207972
0.00208272
0.00208182
0.00207793
0.00207188
0.00206435
0.00205588
0.00204687
0.00203761
0.00202824
0.00201892
0.00200985
0.00200149
0.00199462
0.00198988
0.00198814
0.0019862
0.00198911
0.00141208
0.000935316
0.000860904
0.000901011
0.000968313
0.00103801
0.00110307
0.00116145
0.00121295
0.00125821
0.00129807
0.00133337
0.00136485
0.00139317
0.00141888
0.00144247
0.00146432
0.00148475
0.00150402
0.00152234
0.00153991
0.00155688
0.00157337
0.0015894
0.0016049
0.0016198
0.0016342
0.00164847
0.00166326
0.00167901
0.00169535
0.00171052
0.00172194
0.00172787
0.00172987
0.00166925
0.00115112
0.000898031
0.000757487
0.000671903
0.000617154
0.000582826
0.000565332
0.000565265
0.000586022
0.000632464
0.000709383
0.000820607
0.000969024
0.00115612
0.0013805
0.00163701
0.00191732
0.0022116
0.00251022
0.002805
0.00308981
0.00336064
0.00361525
0.00385283
0.00407351
0.00427808
0.00446768
0.00464367
0.00480758
0.00496113
0.00510616
0.00524467
0.00537725
0.00550594
0.00167382
0.00116299
0.000981673
0.000998136
0.0011426
0.00134961
0.0015813
0.0018202
0.00205578
0.00228128
0.00249295
0.00268923
0.00286994
0.00303575
0.00318769
0.00332699
0.0034549
0.00357264
0.00368134
0.00378205
0.00387577
0.0039634
0.00404573
0.00412332
0.00419647
0.00426536
0.00433037
0.00439245
0.0044532
0.00451406
0.00457499
0.00463306
0.00468316
0.00472057
0.00475021
0.000952107
0.000733326
0.000622305
0.000580882
0.000562599
0.00055322
0.00054831
0.000545891
0.000544924
0.000544805
0.00054519
0.000545857
0.000546646
0.000547429
0.000548108
0.000548607
0.000548878
0.000548895
0.000548658
0.000548179
0.000547484
0.000546606
0.000545578
0.000544434
0.000543204
0.000541914
0.000540588
0.000539247
0.000537915
0.000536623
0.000535393
0.000534266
0.000533159
0.00053226
0.000530443
0.00167069
0.00114996
0.000914495
0.000826202
0.000847685
0.000964315
0.00115179
0.00138294
0.00163834
0.00190402
0.00216959
0.00242796
0.0026749
0.00290828
0.00312729
0.00333207
0.00352321
0.00370152
0.00386788
0.00402317
0.00416826
0.004304
0.00443117
0.00455043
0.00466233
0.00476732
0.00486596
0.0049591
0.00504794
0.00513376
0.00521719
0.00529724
0.0053713
0.00543552
0.00549199
0.00166892
0.00114613
0.000892142
0.000751205
0.000664888
0.000607859
0.000567932
0.000538715
0.000516647
0.000499686
0.000486697
0.000477154
0.000471007
0.000468632
0.000470819
0.000478771
0.000494087
0.00051873
0.000555025
0.000605711
0.000674031
0.000763664
0.000878364
0.00102137
0.00119482
0.0013993
0.00163369
0.00189522
0.00217982
0.00248262
0.00279853
0.00312278
0.0034511
0.00377959
0.00410253
0.00163323
0.00115404
0.00107278
0.00115305
0.00128924
0.00143888
0.00158449
0.00171906
0.00184039
0.00194862
0.00204483
0.00213043
0.00220684
0.00227534
0.00233711
0.00239316
0.00244436
0.00249143
0.00253503
0.0025757
0.00261392
0.00265013
0.00268464
0.00271764
0.00274911
0.00277903
0.00280758
0.00283542
0.00286362
0.00289308
0.00292339
0.00295191
0.00297446
0.00298772
0.00299437
0.00167216
0.00115502
0.000935645
0.000881923
0.000952654
0.00111407
0.00132901
0.00157225
0.00182767
0.00208378
0.00233258
0.00256924
0.00279156
0.00299891
0.00319145
0.00336989
0.00353513
0.00368815
0.00382986
0.00396112
0.00408272
0.00419542
0.00429991
0.00439683
0.00448674
0.00457015
0.00464761
0.00471983
0.00478785
0.00485292
0.00491606
0.0049773
0.00503535
0.00508678
0.0051328
0.000899348
0.00064097
0.000578386
0.000559797
0.000555861
0.000558361
0.000563504
0.000569644
0.000575883
0.000581801
0.00058717
0.000591813
0.000595599
0.00059843
0.000600263
0.000601103
0.000601007
0.000600072
0.000598418
0.000596178
0.000593485
0.000590461
0.000587213
0.000583828
0.000580375
0.0005769
0.000573435
0.000570014
0.000566692
0.000563562
0.000560761
0.000558367
0.000556496
0.000554345
0.000553171
0.000945481
0.000734834
0.00062375
0.000579206
0.000559405
0.000549397
0.000544013
0.000541222
0.000539978
0.000539685
0.000540011
0.000540757
0.000541806
0.000543084
0.000544539
0.000546138
0.000547852
0.000549658
0.000551538
0.000553475
0.000555458
0.000557473
0.00055951
0.000561556
0.0005636
0.000565633
0.000567656
0.000569682
0.000571724
0.000573776
0.000575797
0.000577709
0.00057943
0.000580866
0.000582622
0.00167144
0.00115179
0.0009182
0.000833424
0.000861216
0.000986376
0.0011825
0.00142176
0.00168501
0.00195832
0.00223119
0.00249643
0.00274973
0.00298885
0.00321291
0.00342187
0.00361617
0.00379661
0.00396414
0.00411976
0.00426452
0.00439942
0.00452542
0.00464331
0.0047537
0.00485699
0.00495364
0.00504445
0.00513082
0.00521442
0.00529622
0.00537522
0.00544824
0.0055108
0.00556549
0.00166997
0.00115494
0.00090376
0.000769465
0.000700449
0.000682452
0.000717166
0.000809229
0.000956629
0.00115047
0.00137928
0.00163042
0.00189093
0.00214918
0.00239602
0.002625
0.00283212
0.00301548
0.00317481
0.00331106
0.00342602
0.00352197
0.00360136
0.00366668
0.00372021
0.00376402
0.00379987
0.00382928
0.00385371
0.0038747
0.00389405
0.00391358
0.00393475
0.00395622
0.00397724
0.00166905
0.00114841
0.00089479
0.000754078
0.000668296
0.000612909
0.000576988
0.000556184
0.000550062
0.000560859
0.000592468
0.000649181
0.000734623
0.000851521
0.00100154
0.00118427
0.00139621
0.00163116
0.00188135
0.00213993
0.00240165
0.00266262
0.0029205
0.00317395
0.00342219
0.00366468
0.00390102
0.0041309
0.00435417
0.00457092
0.00478149
0.00498634
0.0051858
0.00537924
0.00556583
0.00155619
0.00106838
0.000985295
0.00104748
0.00115319
0.00126533
0.00137125
0.001467
0.00155199
0.00162692
0.00169291
0.00175109
0.00180259
0.00184849
0.00188981
0.00192735
0.00196175
0.00199356
0.00202323
0.0020511
0.00207746
0.00210254
0.0021265
0.00214942
0.0021713
0.00219212
0.00221197
0.0022312
0.00225041
0.00227013
0.00229029
0.00230965
0.00232602
0.00233695
0.00234388
0.0016086
0.00114873
0.00108972
0.00117006
0.00128746
0.00140674
0.00151693
0.00161493
0.00170143
0.00177747
0.00184454
0.00190399
0.00195694
0.00200437
0.00204716
0.00208603
0.00212154
0.00215414
0.00218419
0.00221196
0.00223769
0.00226155
0.00228372
0.00230432
0.00232345
0.00234119
0.00235761
0.00237289
0.00238737
0.00240154
0.00241589
0.00243048
0.00244519
0.00245727
0.00247254
0.00166918
0.00114768
0.000894539
0.000756321
0.000677727
0.000639023
0.000636579
0.000674727
0.000759308
0.000892356
0.00107106
0.00128973
0.00154016
0.00181209
0.00209516
0.00238071
0.00266244
0.00293622
0.00319954
0.00345106
0.00369015
0.0039167
0.00413094
0.00433333
0.0045244
0.00470475
0.00487503
0.00503604
0.00518892
0.00533515
0.00547615
0.00561248
0.00574336
0.00586627
0.00598163
0.00144197
0.00098959
0.000935079
0.000986341
0.00106003
0.00113388
0.0012019
0.00126273
0.0013165
0.0013639
0.00140568
0.00144256
0.00147533
0.00150468
0.00153121
0.00155533
0.00157739
0.00159766
0.00161632
0.00163352