/*--------------------------------*- C++ -*----------------------------------*\
| =========                 |                                                 |
| \\      /  F ield         | OpenFOAM: The Open Source CFD Toolbox           |
|  \\    /   O peration     | Version:  2.4.x                                 |
|   \\  /    A nd           | Web:      www.OpenFOAM.org                      |
|    \\/     M anipulation  |                                                 |
\*---------------------------------------------------------------------------*/
FoamFile
{
    version     2.0;
    format      ascii;
    class       volScalarField;
    location    "9980/coolant";
    object      p_rgh;
}
// * * * * * * * * * * * * * * * * * * * * * * * * * * * * * * * * * * * * * //

dimensions      [1 -1 -2 0 0 0 0];

internalField   nonuniform List<scalar> 
109760
(
5.25235
4.64049
4.3126
4.10471
3.92173
3.75374
3.59939
3.45429
3.31528
3.18069
3.0494
2.92052
2.79333
2.66727
2.54194
2.41702
2.29229
2.16761
2.04292
1.91818
1.79339
1.66858
1.54377
1.41902
1.29436
1.16983
1.04548
0.921338
0.797441
0.673804
0.550425
0.427366
0.304563
0.182309
0.0627953
5.33224
4.59394
4.30286
4.09911
3.91749
3.7512
3.59767
3.45288
3.31404
3.17956
3.04833
2.9195
2.79235
2.66635
2.54106
2.41618
2.2915
2.16686
2.04221
1.9175
1.79275
1.66796
1.54319
1.41846
1.29382
1.16931
1.04498
0.920857
0.796974
0.67335
0.549981
0.426944
0.304113
0.181935
0.0612882
5.54506
4.51759
4.28112
4.08651
3.90741
3.74433
3.59272
3.44906
3.31108
3.17732
3.04671
2.91841
2.79173
2.66609
2.54108
2.41639
2.29182
2.16725
2.0426
1.91788
1.79308
1.66825
1.54342
1.41863
1.29394
1.16939
1.04502
0.920861
0.796943
0.673284
0.549863
0.426829
0.303616
0.182162
0.0550865
5.38633
4.56447
4.29798
4.09543
3.91499
3.74937
3.59613
3.45152
3.31283
3.17848
3.04737
2.91863
2.79157
2.66564
2.54041
2.41559
2.29095
2.16636
2.04174
1.91707
1.79234
1.66758
1.54283
1.41812
1.2935
1.16902
1.0447
0.92059
0.796714
0.673095
0.549735
0.42672
0.303938
0.181757
0.0614458
5.46857
4.54132
4.28886
4.09065
3.91114
3.74672
3.59425
3.4501
3.31175
3.17766
3.04676
2.91819
2.79128
2.66546
2.54032
2.41556
2.29096
2.1664
2.04179
1.91712
1.79239
1.66763
1.54287
1.41815
1.29352
1.16903
1.0447
0.92058
0.796698
0.67307
0.549692
0.426662
0.303705
0.181789
0.058693
5.32087
4.59866
4.30421
4.09959
3.91802
3.75158
3.59795
3.45313
3.31427
3.17976
3.04852
2.91966
2.79249
2.66647
2.54116
2.41627
2.29158
2.16694
2.04228
1.91757
1.79281
1.66803
1.54325
1.41852
1.29388
1.16938
1.04505
0.920928
0.797045
0.673419
0.550047
0.427002
0.304191
0.181955
0.0619708
5.17026
4.68696
4.32405
4.11011
3.92699
3.75687
3.60132
3.45575
3.31644
3.18162
3.05018
2.9212
2.79394
2.66785
2.54251
2.41759
2.29288
2.16823
2.04356
1.91885
1.7941
1.66932
1.54455
1.41982
1.29519
1.17069
1.04636
0.922248
0.798373
0.674756
0.551405
0.428371
0.305652
0.18352
0.0655655
5.3636
4.58263
4.29834
4.09672
3.91562
3.74991
3.59671
3.4521
3.3134
3.17903
3.0479
2.91914
2.79206
2.66611
2.54087
2.41602
2.29136
2.16675
2.0421
1.9174
1.79265
1.66787
1.5431
1.41837
1.29373
1.16923
1.04489
0.92077
0.796885
0.673259
0.549886
0.426853
0.30396
0.181889
0.0600989
5.20016
4.67104
4.31943
4.10818
3.92497
3.75564
3.60057
3.45518
3.31599
3.18127
3.0499
2.92096
2.79374
2.66768
2.54236
2.41745
2.29275
2.1681
2.04344
1.91873
1.79397
1.66918
1.54439
1.41964
1.29498
1.17046
1.0461
0.92195
0.798044
0.674397
0.551014
0.42795
0.305175
0.182955
0.0641031
5.54409
4.51654
4.28112
4.08665
3.90721
3.74432
3.59281
3.44918
3.31123
3.1775
3.04694
2.91869
2.79204
2.66643
2.54144
2.41675
2.29216
2.16756
2.04289
1.91813
1.79331
1.66845
1.5436
1.4188
1.29409
1.16952
1.04513
0.920965
0.79704
0.673392
0.549992
0.426996
0.303765
0.182427
0.0541491
5.54445
4.51588
4.28111
4.0867
3.90729
3.74438
3.59285
3.44921
3.31125
3.17751
3.04694
2.91868
2.79202
2.6664
2.5414
2.41671
2.29212
2.16752
2.04285
1.91809
1.79327
1.66841
1.54356
1.41876
1.29406
1.1695
1.04512
0.920946
0.797019
0.673352
0.549919
0.426897
0.30362
0.182345
0.0541801
5.54077
4.51754
4.28129
4.08683
3.90741
3.74441
3.59284
3.44917
3.3112
3.17744
3.04686
2.91859
2.79193
2.66631
2.54131
2.41662
2.29204
2.16745
2.04279
1.91805
1.79323
1.66838
1.54354
1.41874
1.29404
1.16948
1.04509
0.920929
0.797006
0.67336
0.549964
0.426965
0.303757
0.182371
0.0544349
5.53997
4.51719
4.28124
4.0868
3.90744
3.74444
3.59287
3.4492
3.31122
3.17747
3.04688
2.9186
2.79193
2.66631
2.5413
2.41661
2.29202
2.16743
2.04277
1.91802
1.79321
1.66836
1.54351
1.41872
1.29402
1.16947
1.04509
0.92092
0.796996
0.673332
0.549904
0.426878
0.303622
0.182287
0.0544768
5.47527
4.54011
4.28857
4.09046
3.91113
3.74671
3.59424
3.45009
3.31174
3.17764
3.04674
2.91817
2.79124
2.66541
2.54027
2.4155
2.2909
2.16634
2.04173
1.91706
1.79234
1.66758
1.54282
1.4181
1.29348
1.16898
1.04466
0.920544
0.796664
0.673038
0.549663
0.426635
0.303695
0.181756
0.0589238
5.4063
4.57095
4.2926
4.09433
3.91333
3.74848
3.59585
3.45153
3.31302
3.17879
3.04779
2.91914
2.79215
2.66627
2.54108
2.41627
2.29162
2.16701
2.04235
1.91763
1.79286
1.66805
1.54325
1.4185
1.29384
1.16932
1.04497
0.920827
0.79693
0.673294
0.549908
0.426882
0.303845
0.182035
0.0575297
5.39406
4.57118
4.29461
4.09487
3.91405
3.74888
3.596
3.45156
3.31297
3.17869
3.04764
2.91895
2.79193
2.66603
2.54083
2.41601
2.29137
2.16677
2.04213
1.91743
1.79268
1.6679
1.54312
1.41839
1.29374
1.16923
1.04489
0.920766
0.796877
0.673246
0.549868
0.426839
0.303881
0.181942
0.0588648
5.39044
4.5675
4.29594
4.09488
3.91436
3.74898
3.59592
3.4514
3.31277
3.17846
3.04739
2.91869
2.79165
2.66574
2.54053
2.41572
2.29108
2.16649
2.04186
1.91718
1.79244
1.66768
1.54291
1.4182
1.29357
1.16907
1.04475
0.920633
0.796754
0.673132
0.549763
0.426737
0.303858
0.181794
0.0601268
5.46495
4.54288
4.28816
4.09084
3.9109
3.74664
3.5943
3.45019
3.31187
3.17781
3.04696
2.91844
2.79156
2.66578
2.54067
2.41593
2.29134
2.16677
2.04215
1.91746
1.79271
1.66793
1.54314
1.4184
1.29375
1.16923
1.04489
0.920749
0.796852
0.673214
0.549821
0.426791
0.303733
0.181979
0.0572752
5.48623
4.53364
4.28849
4.0907
3.91121
3.74676
3.59427
3.45008
3.3117
3.1776
3.0467
2.91814
2.79123
2.66541
2.54028
2.41552
2.29093
2.16637
2.04176
1.9171
1.79237
1.6676
1.54284
1.41813
1.2935
1.169
1.04467
0.920552
0.796668
0.673044
0.549675
0.426663
0.303749
0.181839
0.0587205
5.33178
4.59234
4.30309
4.0988
3.9174
3.75111
3.59753
3.45273
3.31388
3.1794
3.04817
2.91934
2.79219
2.66619
2.5409
2.41603
2.29135
2.16672
2.04207
1.91737
1.79262
1.66784
1.54307
1.41835
1.29372
1.16922
1.04489
0.920775
0.796896
0.673275
0.549908
0.426871
0.304068
0.181841
0.0618259
5.45411
4.54533
4.29062
4.09146
3.91189
3.74723
3.5946
3.45035
3.31193
3.17778
3.04684
2.91823
2.79128
2.66543
2.54027
2.41549
2.29088
2.16631
2.04171
1.91704
1.79231
1.66756
1.5428
1.41809
1.29347
1.16898
1.04466
0.920545
0.796667
0.673044
0.549673
0.426648
0.303746
0.181755
0.0595243
5.51309
4.53173
4.28364
4.08874
3.90858
3.74549
3.59384
3.45007
3.31198
3.17812
3.04743
2.91906
2.79231
2.66662
2.54155
2.41679
2.29216
2.16752
2.04283
1.91806
1.79322
1.66836
1.54351
1.41871
1.29401
1.16944
1.04506
0.920887
0.796961
0.673316
0.549926
0.426957
0.303742
0.182471
0.0538327
5.51318
4.53161
4.28362
4.08873
3.90859
3.7455
3.59385
3.45007
3.31198
3.17812
3.04743
2.91907
2.79232
2.66662
2.54155
2.41679
2.29216
2.16752
2.04283
1.91805
1.79322
1.66836
1.54351
1.41871
1.294
1.16944
1.04506
0.920898
0.796977
0.673321
0.549896
0.426877
0.303561
0.182265
0.0538004
5.56415
4.50915
4.27984
4.08575
3.9066
3.7439
3.59251
3.44898
3.3111
3.17743
3.04692
2.91871
2.7921
2.66652
2.54153
2.41685
2.29226
2.16766
2.04298
1.91822
1.79338
1.66852
1.54366
1.41885
1.29414
1.16957
1.04518
0.921008
0.797071
0.673392
0.549948
0.426925
0.303647
0.182446
0.0540437
5.56711
4.50865
4.27969
4.08562
3.90651
3.74383
3.59246
3.44894
3.31107
3.17741
3.0469
2.9187
2.79209
2.66651
2.54154
2.41685
2.29227
2.16767
2.04299
1.91822
1.79339
1.66852
1.54366
1.41885
1.29414
1.16957
1.04518
0.921006
0.797079
0.673429
0.550023
0.427019
0.303756
0.182439
0.0539513
5.2419
4.64626
4.31389
4.1054
3.92235
3.75412
3.59964
3.45449
3.31546
3.18086
3.04956
2.92068
2.7935
2.66746
2.54214
2.41723
2.29251
2.16784
2.04315
1.9184
1.79361
1.6688
1.54399
1.41924
1.29457
1.17004
1.04568
0.921536
0.797635
0.673993
0.55061
0.427546
0.304745
0.182484
0.0631502
5.58241
4.50669
4.27887
4.08511
3.90624
3.74364
3.59232
3.44883
3.31099
3.17735
3.04686
2.91866
2.79206
2.66649
2.54151
2.41684
2.29226
2.16766
2.04298
1.91822
1.79339
1.66852
1.54366
1.41886
1.29414
1.16957
1.04518
0.921009
0.797083
0.673433
0.550026
0.427015
0.303758
0.182401
0.0540985
5.41602
4.5676
4.29156
4.09377
3.91283
3.74817
3.59566
3.45141
3.31295
3.17877
3.04779
2.91917
2.7922
2.66634
2.54116
2.41635
2.2917
2.16708
2.04241
1.91769
1.7929
1.66809
1.54328
1.41853
1.29386
1.16933
1.04498
0.920834
0.796934
0.673296
0.549908
0.426883
0.30382
0.18206
0.0571097
5.56796
4.51763
4.28109
4.08645
3.90738
3.74431
3.59271
3.44905
3.31106
3.17729
3.04668
2.91838
2.7917
2.66606
2.54106
2.41638
2.29182
2.16725
2.04262
1.91789
1.7931
1.66827
1.54344
1.41866
1.29397
1.16942
1.04504
0.920875
0.796957
0.673313
0.549922
0.426916
0.303765
0.182249
0.0551789
5.45682
4.55053
4.29462
4.09307
3.91344
3.74829
3.59531
3.45087
3.31232
3.17806
3.04702
2.91834
2.79132
2.66542
2.54022
2.41542
2.2908
2.16622
2.04161
1.91694
1.79222
1.66747
1.54272
1.41802
1.29341
1.16893
1.04462
0.920508
0.79663
0.673008
0.549651
0.42665
0.303901
0.181747
0.0615011
5.52429
4.52313
4.2825
4.08747
3.90806
3.74477
3.59302
3.44927
3.31123
3.17741
3.04676
2.91842
2.7917
2.66604
2.54102
2.41632
2.29175
2.16717
2.04253
1.91781
1.79302
1.66819
1.54336
1.41859
1.2939
1.16936
1.04499
0.920832
0.796917
0.673262
0.549846
0.426815
0.303616
0.182139
0.0552353
5.35131
4.58691
4.29987
4.09737
3.91618
3.75027
3.59696
3.4523
3.31357
3.17917
3.04801
2.91923
2.79213
2.66616
2.5409
2.41605
2.29138
2.16676
2.04211
1.91741
1.79266
1.66788
1.5431
1.41838
1.29374
1.16924
1.04491
0.920787
0.796904
0.673279
0.549908
0.426873
0.30401
0.181883
0.0607083
5.56055
4.51049
4.28017
4.08595
3.90673
3.74399
3.59258
3.44902
3.31113
3.17745
3.04692
2.91871
2.79209
2.6665
2.54152
2.41683
2.29225
2.16764
2.04296
1.9182
1.79337
1.6685
1.54364
1.41883
1.29412
1.16956
1.04517
0.920996
0.797061
0.673384
0.54994
0.426918
0.303636
0.18243
0.0540185
5.56194
4.51015
4.28007
4.08588
3.90668
3.74396
3.59256
3.449
3.31111
3.17744
3.04692
2.9187
2.79209
2.6665
2.54152
2.41683
2.29225
2.16764
2.04296
1.9182
1.79337
1.6685
1.54364
1.41884
1.29412
1.16955
1.04516
0.920992
0.797065
0.673416
0.550011
0.427011
0.303753
0.182445
0.0539382
5.20731
4.66945
4.31782
4.10768
3.9245
3.75531
3.60036
3.45504
3.31588
3.18119
3.04984
2.92092
2.79371
2.66767
2.54235
2.41745
2.29275
2.1681
2.04344
1.91873
1.79397
1.66918
1.5444
1.41966
1.295
1.17048
1.04612
0.921976
0.798069
0.674421
0.551033
0.427964
0.30516
0.182945
0.0632999
5.52415
4.52264
4.28242
4.08751
3.90804
3.74476
3.59303
3.44927
3.31121
3.17738
3.04673
2.91839
2.79168
2.66602
2.541
2.41631
2.29173
2.16716
2.04252
1.9178
1.79301
1.66818
1.54336
1.41858
1.2939
1.16935
1.04498
0.920819
0.796904
0.673263
0.549875
0.426875
0.303732
0.182225
0.0552007
5.44044
4.55045
4.2905
4.09203
3.91196
3.74734
3.59476
3.45052
3.3121
3.17796
3.04703
2.91844
2.79151
2.66568
2.54053
2.41577
2.29116
2.16659
2.04197
1.91729
1.79255
1.66778
1.54301
1.41828
1.29365
1.16914
1.0448
0.920678
0.796791
0.673159
0.549778
0.426749
0.303762
0.181888
0.0583147
5.43738
4.54982
4.29312
4.09255
3.9129
3.74792
3.59506
3.45069
3.31218
3.17797
3.04696
2.91831
2.79132
2.66544
2.54025
2.41546
2.29084
2.16626
2.04165
1.91699
1.79226
1.66751
1.54276
1.41806
1.29344
1.16896
1.04464
0.920533
0.796657
0.673037
0.549674
0.426658
0.303835
0.181738
0.0606792
5.58156
4.51447
4.28026
4.08593
3.90694
3.74404
3.59255
3.44895
3.31101
3.17729
3.04672
2.91845
2.7918
2.66618
2.54119
2.41651
2.29195
2.16737
2.04272
1.91798
1.79318
1.66834
1.5435
1.41871
1.29401
1.16945
1.04506
0.920901
0.796981
0.673336
0.549941
0.426936
0.303752
0.182291
0.0547952
5.58159
4.5138
4.28014
4.08579
3.9069
3.74402
3.59253
3.44895
3.31104
3.17732
3.04676
2.9185
2.79184
2.66623
2.54124
2.41656
2.29198
2.1674
2.04275
1.91801
1.7932
1.66835
1.54351
1.41872
1.29402
1.16947
1.04509
0.920922
0.796998
0.673333
0.549904
0.426867
0.303633
0.182228
0.0548301
5.43302
4.54884
4.29281
4.09329
3.91299
3.74801
3.59518
3.45079
3.31226
3.17804
3.04706
2.91843
2.79146
2.66561
2.54044
2.41566
2.29105
2.16648
2.04187
1.91719
1.79246
1.66769
1.54293
1.41821
1.29358
1.16908
1.04475
0.92063
0.796745
0.673121
0.549754
0.426741
0.303841
0.181886
0.0591561
5.31759
4.60286
4.30399
4.09971
3.91805
3.75159
3.598
3.45321
3.31437
3.17987
3.04863
2.91977
2.7926
2.66657
2.54126
2.41637
2.29166
2.16702
2.04235
1.91764
1.79288
1.66809
1.54331
1.41857
1.29393
1.16942
1.04509
0.920962
0.797076
0.673448
0.550073
0.427026
0.304194
0.181986
0.0616776
5.34164
4.59062
4.30136
4.09812
3.91684
3.75074
3.59729
3.45255
3.31375
3.17931
3.04811
2.9193
2.79218
2.66619
2.54091
2.41605
2.29137
2.16674
2.04209
1.91739
1.79264
1.66786
1.54309
1.41837
1.29374
1.16924
1.04491
0.920787
0.796906
0.673282
0.549913
0.426876
0.304037
0.181862
0.061199
5.38633
4.56755
4.29732
4.09533
3.91487
3.74933
3.59614
3.45155
3.31287
3.17853
3.04742
2.91869
2.79164
2.66571
2.54049
2.41567
2.29103
2.16643
2.04181
1.91713
1.7924
1.66764
1.54289
1.41818
1.29356
1.16907
1.04475
0.920634
0.796757
0.673137
0.549773
0.426749
0.303922
0.181775
0.0609608
5.37718
4.58433
4.29537
4.09605
3.9146
3.7493
3.59647
3.45208
3.31351
3.17923
3.04817
2.91946
2.79242
2.6665
2.54127
2.41642
2.29175
2.16712
2.04245
1.91772
1.79294
1.66812
1.54332
1.41857
1.2939
1.16937
1.04502
0.92088
0.796982
0.673346
0.549962
0.426932
0.303932
0.182041
0.0581536
5.53029
4.52259
4.28222
4.08759
3.90784
3.74486
3.59328
3.44957
3.31155
3.17776
3.04714
2.91884
2.79215
2.66651
2.54148
2.41677
2.29216
2.16755
2.04286
1.9181
1.79327
1.66841
1.54356
1.41876
1.29405
1.16949
1.0451
0.920929
0.797003
0.673357
0.549961
0.426981
0.303752
0.182465
0.0539176
5.53132
4.52213
4.28212
4.08748
3.90776
3.74481
3.59325
3.44956
3.31155
3.17777
3.04715
2.91886
2.79217
2.66653
2.5415
2.41678
2.29218
2.16756
2.04288
1.91811
1.79328
1.66842
1.54357
1.41876
1.29406
1.1695
1.04511
0.920945
0.797019
0.673355
0.549924
0.426904
0.3036
0.182335
0.0539232
5.22733
4.65653
4.3153
4.10631
3.9232
3.75457
3.5999
3.45469
3.31561
3.18097
3.04967
2.92078
2.79361
2.66759
2.5423
2.41742
2.29272
2.16808
2.0434
1.91867
1.79389
1.66907
1.54426
1.4195
1.29483
1.17029
1.04593
0.921779
0.797871
0.674224
0.550836
0.427769
0.304959
0.182721
0.0631731
5.29316
4.61775
4.307
4.10153
3.91931
3.7523
3.59844
3.45354
3.31464
3.18011
3.04884
2.91996
2.79277
2.66672
2.5414
2.41649
2.29177
2.16711
2.04243
1.91771
1.79293
1.66814
1.54335
1.41861
1.29396
1.16945
1.04511
0.920983
0.797096
0.673468
0.550094
0.427045
0.304222
0.181998
0.0619469
5.45707
4.55037
4.2875
4.0917
3.91106
3.747
3.59479
3.45068
3.31234
3.17826
3.0474
2.91888
2.79201
2.66623
2.54111
2.41634
2.29172
2.16711
2.04245
1.91772
1.79293
1.66811
1.54329
1.41853
1.29385
1.16931
1.04495
0.920797
0.796888
0.673252
0.549871
0.426874
0.303784
0.182197
0.0557534
5.49861
4.53304
4.28413
4.08887
3.90897
3.74547
3.5936
3.44974
3.3116
3.17771
3.047
2.91861
2.79185
2.66616
2.54111
2.41639
2.2918
2.1672
2.04255
1.91782
1.79302
1.66819
1.54337
1.41859
1.2939
1.16936
1.04499
0.920834
0.79692
0.673269
0.549858
0.426835
0.303629
0.182166
0.055083
5.48851
4.53416
4.28584
4.08918
3.90967
3.74575
3.59361
3.44965
3.31143
3.17746
3.04667
2.91821
2.79137
2.66562
2.54054
2.41581
2.29123
2.16667
2.04205
1.91737
1.79262
1.66783
1.54305
1.41831
1.29366
1.16914
1.04479
0.920657
0.796761
0.673122
0.549728
0.426697
0.303625
0.181902
0.0569517
5.39697
4.56475
4.29554
4.09534
3.9145
3.74918
3.59617
3.45163
3.31298
3.17866
3.04759
2.91889
2.79186
2.66596
2.54075
2.41594
2.2913
2.16671
2.04208
1.91739
1.79264
1.66786
1.54309
1.41836
1.29372
1.16921
1.04487
0.920745
0.796857
0.673231
0.549862
0.426843
0.303938
0.181958
0.0593037
5.27034
4.63454
4.30909
4.10326
3.92052
3.75294
3.59888
3.45393
3.31503
3.18053
3.0493
2.92047
2.79332
2.6673
2.54199
2.41707
2.29234
2.16766
2.04296
1.9182
1.79341
1.66859
1.54378
1.41902
1.29436
1.16983
1.04547
0.921328
0.797425
0.673782
0.550396
0.427336
0.304484
0.182287
0.0617043
5.33222
4.60701
4.30079
4.09916
3.91694
3.75072
3.59743
3.45283
3.31415
3.17979
3.04867
2.9199
2.79281
2.66683
2.54156
2.41668
2.29198
2.16732
2.04264
1.9179
1.79311
1.66829
1.54348
1.41872
1.29405
1.16952
1.04516
0.921017
0.797115
0.673475
0.550091
0.427052
0.304106
0.182092
0.0592278
5.49995
4.53245
4.28418
4.08906
3.90906
3.74553
3.59363
3.44973
3.31157
3.17766
3.04694
2.91855
2.7918
2.66611
2.54106
2.41635
2.29176
2.16717
2.04253
1.9178
1.79301
1.66818
1.54335
1.41858
1.29389
1.16935
1.04497
0.920817
0.796903
0.673262
0.549876
0.426881
0.303738
0.182254
0.0550936
5.40201
4.56181
4.2955
4.09438
3.91412
3.74881
3.59577
3.45126
3.31265
3.17835
3.04729
2.9186
2.79157
2.66566
2.54046
2.41565
2.29101
2.16643
2.04181
1.91713
1.7924
1.66764
1.54289
1.41818
1.29355
1.16906
1.04474
0.920628
0.79675
0.673129
0.549763
0.426738
0.303884
0.181789
0.0604699
5.50555
4.52964
4.28382
4.0884
3.90874
3.74525
3.59339
3.44955
3.31144
3.17757
3.04687
2.91849
2.79174
2.66605
2.54101
2.4163
2.29172
2.16714
2.0425
1.91778
1.79299
1.66817
1.54335
1.41858
1.2939
1.16936
1.04499
0.920835
0.796923
0.673271
0.549859
0.42683
0.303647
0.182135
0.0554516
5.40919
4.55699
4.29636
4.09423
3.91419
3.7488
3.59568
3.45116
3.31253
3.17823
3.04716
2.91846
2.79142
2.66551
2.5403
2.41549
2.29086
2.16628
2.04167
1.917
1.79227
1.66752
1.54277
1.41807
1.29345
1.16897
1.04466
0.92055
0.796673
0.673053
0.549695
0.426687
0.303921
0.181744
0.06152
5.34285
4.61192
4.29861
4.0992
3.91642
3.75033
3.59725
3.45276
3.31416
3.1799
3.04888
2.92021
2.79321
2.66731
2.54208
2.41723
2.29253
2.16786
2.04314
1.91836
1.79352
1.66866
1.5438
1.419
1.2943
1.16974
1.04535
0.921186
0.797267
0.673615
0.550218
0.42718
0.304149
0.182261
0.0574595
5.33958
4.58817
4.30248
4.09853
3.91721
3.75101
3.59746
3.45265
3.31381
3.17932
3.0481
2.91927
2.79213
2.66614
2.54086
2.41599
2.29132
2.1667
2.04205
1.91736
1.79261
1.66784
1.54307
1.41835
1.29372
1.16922
1.04489
0.920778
0.7969
0.673278
0.549911
0.426877
0.30407
0.181855
0.0616602
5.55797
4.52212
4.28221
4.08698
3.90795
3.74465
3.59291
3.44918
3.31115
3.17733
3.04667
2.91833
2.79159
2.66593
2.5409
2.41621
2.29164
2.16708
2.04245
1.91775
1.79297
1.66815
1.54334
1.41857
1.29389
1.16935
1.04499
0.920832
0.79692
0.673265
0.549851
0.426812
0.303649
0.182082
0.055794
5.31666
4.60496
4.3039
4.09981
3.91803
3.75154
3.59794
3.45316
3.31433
3.17984
3.04861
2.91976
2.79259
2.66657
2.54126
2.41637
2.29167
2.16702
2.04235
1.91764
1.79287
1.66808
1.5433
1.41856
1.29392
1.16941
1.04507
0.920945
0.797059
0.67343
0.550055
0.42701
0.304167
0.181976
0.0614276
5.21739
4.66655
4.31598
4.10712
3.92386
3.75489
3.60011
3.45485
3.31574
3.18109
3.04976
2.92087
2.79368
2.66765
2.54234
2.41744
2.29274
2.1681
2.04344
1.91873
1.79396
1.66918
1.54439
1.41966
1.29501
1.1705
1.04615
0.922011
0.798107
0.674456
0.551063
0.427989
0.30515
0.18294
0.0623294
5.38258
4.56666
4.29843
4.09569
3.91523
3.74957
3.59629
3.45165
3.31294
3.17857
3.04745
2.9187
2.79163
2.66569
2.54046
2.41563
2.29099
2.16639
2.04177
1.9171
1.79237
1.66761
1.54286
1.41815
1.29353
1.16905
1.04473
0.92062
0.796744
0.673124
0.549764
0.426745
0.303964
0.181767
0.061575
5.33892
4.59527
4.30093
4.09832
3.91681
3.75073
3.59737
3.45271
3.31396
3.17954
3.04837
2.91958
2.79246
2.66647
2.5412
2.41632
2.29164
2.167
2.04234
1.91763
1.79286
1.66807
1.54329
1.41855
1.2939
1.16939
1.04505
0.920921
0.797031
0.6734
0.550024
0.426984
0.304101
0.181987
0.0605502
5.55141
4.51676
4.28075
4.08631
3.90736
3.74429
3.59268
3.44903
3.31106
3.17729
3.04668
2.91838
2.79168
2.66604
2.54103
2.41634
2.29178
2.1672
2.04256
1.91784
1.79304
1.66821
1.54339
1.41861
1.29392
1.16937
1.045
0.920842
0.796926
0.673268
0.549848
0.426812
0.30361
0.182129
0.0552231
5.45591
4.55141
4.2944
4.09289
3.9133
3.74819
3.59524
3.45083
3.31228
3.17803
3.047
2.91833
2.79131
2.66542
2.54022
2.41542
2.29079
2.16621
2.04161
1.91694
1.79222
1.66747
1.54272
1.41802
1.2934
1.16892
1.04461
0.920502
0.796625
0.673005
0.549649
0.426648
0.303885
0.181734
0.0613986
5.31981
4.60235
4.304
4.10001
3.91804
3.75155
3.59795
3.45316
3.31432
3.17983
3.04861
2.91977
2.79262
2.6666
2.54131
2.41642
2.29172
2.16707
2.04241
1.91769
1.79292
1.66813
1.54334
1.4186
1.29396
1.16944
1.0451
0.920972
0.797083
0.673454
0.550081
0.427039
0.304195
0.182024
0.0611802
5.44096
4.56853
4.28843
4.09308
3.91146
3.74738
3.59536
3.45141
3.31319
3.17922
3.0484
2.91989
2.79299
2.66715
2.54195
2.41709
2.29236
2.16766
2.04291
1.9181
1.79324
1.66836
1.54349
1.41869
1.29398
1.16942
1.04504
0.920879
0.796964
0.673317
0.549915
0.426899
0.303687
0.182167
0.0547069
5.2763
4.63871
4.30748
4.10326
3.92018
3.75263
3.5987
3.45381
3.31495
3.18048
3.04929
2.9205
2.79339
2.66741
2.54213
2.41725
2.29255
2.16789
2.0432
1.91845
1.79365
1.66882
1.54399
1.41921
1.29452
1.16997
1.04559
0.921424
0.797503
0.673847
0.55045
0.427391
0.30448
0.182363
0.0600842
5.40458
4.5601
4.29592
4.09429
3.91412
3.74878
3.5957
3.45118
3.31257
3.17827
3.04721
2.91851
2.79148
2.66557
2.54037
2.41556
2.29093
2.16634
2.04173
1.91706
1.79233
1.66758
1.54282
1.41812
1.2935
1.16901
1.0447
0.920586
0.79671
0.67309
0.549728
0.426709
0.303892
0.181754
0.0609537
5.42331
4.55506
4.29296
4.0931
3.913
3.74803
3.59521
3.45083
3.31231
3.1781
3.0471
2.91846
2.79147
2.6656
2.54042
2.41563
2.29101
2.16644
2.04182
1.91715
1.79242
1.66765
1.54289
1.41818
1.29355
1.16906
1.04473
0.920616
0.796735
0.673111
0.549739
0.426713
0.303806
0.181806
0.0595606
5.27939
4.62874
4.30839
4.10307
3.92015
3.75275
3.59879
3.45387
3.31498
3.18049
3.04927
2.92044
2.79329
2.66727
2.54196
2.41704
2.29231
2.16764
2.04294
1.91819
1.79339
1.66857
1.54376
1.419
1.29433
1.1698
1.04544
0.921293
0.79739
0.67375
0.550369
0.427318
0.304464
0.182285
0.0612723
5.4436
4.54498
4.2922
4.09274
3.91265
3.74774
3.59496
3.4506
3.3121
3.17791
3.04693
2.91831
2.79135
2.6655
2.54034
2.41556
2.29096
2.16639
2.04178
1.91711
1.79238
1.66761
1.54285
1.41814
1.29351
1.16901
1.04469
0.920571
0.796688
0.673066
0.5497
0.426688
0.303804
0.181838
0.0593108
5.19257
4.67738
4.32004
4.10867
3.92548
3.7559
3.60073
3.45531
3.3161
3.18136
3.04998
2.92104
2.79382
2.66776
2.54243
2.41752
2.29282
2.16817
2.04351
1.9188
1.79404
1.66925
1.54448
1.41975
1.29511
1.17061
1.04628
0.922156
0.798273
0.674647
0.551279
0.428227
0.305448
0.183255
0.0638707
5.46317
4.54248
4.28898
4.09081
3.91117
3.74674
3.59428
3.45012
3.31177
3.17768
3.04679
2.91823
2.79132
2.66551
2.54038
2.41562
2.29102
2.16646
2.04185
1.91718
1.79245
1.66768
1.54292
1.4182
1.29356
1.16906
1.04473
0.920611
0.796726
0.673097
0.549716
0.426686
0.303711
0.18182
0.0584372
5.56045
4.51252
4.28022
4.08601
3.9069
3.74406
3.59259
3.449
3.31109
3.17738
3.04683
2.91859
2.79196
2.66636
2.54137
2.4167
2.29212
2.16754
2.04287
1.91813
1.79331
1.66846
1.54361
1.41881
1.29411
1.16954
1.04515
0.920984
0.797059
0.673411
0.550011
0.427005
0.303789
0.182386
0.0544812
5.43204
4.5484
4.29413
4.09316
3.91332
3.74818
3.59523
3.4508
3.31225
3.178
3.04698
2.91831
2.7913
2.66541
2.54022
2.41542
2.2908
2.16622
2.04161
1.91694
1.79222
1.66747
1.54272
1.41801
1.2934
1.16891
1.0446
0.920492
0.796615
0.672993
0.549634
0.426629
0.303846
0.181739
0.0609056
5.58019
4.50857
4.2791
4.08531
3.90644
3.74376
3.5924
3.44888
3.31101
3.17734
3.04682
2.91861
2.79199
2.6664
2.54142
2.41675
2.29217
2.16758
2.04291
1.91816
1.79334
1.66848
1.54363
1.41882
1.29411
1.16955
1.04515
0.920986
0.797061
0.673412
0.55001
0.427
0.303767
0.182377
0.054324
5.47965
4.54272
4.28548
4.09005
3.90971
3.74606
3.59411
3.45017
3.31197
3.17801
3.04725
2.91882
2.79202
2.66628
2.5412
2.41645
2.29184
2.16723
2.04256
1.91782
1.79302
1.66818
1.54336
1.41858
1.29389
1.16935
1.04498
0.920825
0.796914
0.673266
0.54986
0.426842
0.303635
0.182165
0.0550054
5.40754
4.57466
4.29233
4.09506
3.91344
3.74862
3.5961
3.45183
3.31336
3.17918
3.04819
2.91956
2.79258
2.66669
2.54148
2.41665
2.29197
2.16732
2.04263
1.91787
1.79307
1.66823
1.54341
1.41863
1.29395
1.16941
1.04505
0.920896
0.796988
0.673351
0.549973
0.426967
0.30393
0.182209
0.0566394
5.3432
4.61053
4.29861
4.09954
3.91658
3.75043
3.59732
3.45279
3.31417
3.1799
3.04886
2.92019
2.79319
2.66729
2.54207
2.41723
2.29254
2.16787
2.04316
1.91838
1.79354
1.66867
1.54382
1.41902
1.29431
1.16975
1.04536
0.921192
0.797269
0.673619
0.550232
0.427206
0.304212
0.182324
0.0574426
5.39365
4.56182
4.29756
4.09526
3.91483
3.74926
3.59605
3.45145
3.31277
3.17843
3.04733
2.9186
2.79155
2.66563
2.54041
2.41559
2.29096
2.16637
2.04175
1.91708
1.79235
1.6676
1.54284
1.41814
1.29352
1.16903
1.04471
0.920603
0.796726
0.673105
0.549745
0.426731
0.303944
0.181783
0.0612923
5.4152
4.55423
4.29527
4.09422
3.9139
3.7486
3.59557
3.45107
3.31247
3.1782
3.04715
2.91848
2.79146
2.66557
2.54038
2.41558
2.29096
2.16638
2.04177
1.9171
1.79238
1.66762
1.54287
1.41816
1.29353
1.16904
1.04472
0.920611
0.796732
0.673111
0.549748
0.426734
0.303906
0.181826
0.0604385
5.4018
4.56624
4.29426
4.095
3.91398
3.74885
3.59599
3.45154
3.31295
3.17867
3.04763
2.91896
2.79195
2.66607
2.54087
2.41606
2.29143
2.16682
2.04218
1.91748
1.79272
1.66793
1.54315
1.41841
1.29376
1.16924
1.04489
0.920761
0.796867
0.673239
0.549868
0.426853
0.303903
0.18201
0.0583887
5.41077
4.56069
4.29372
4.09379
3.91344
3.74836
3.59549
3.45107
3.31252
3.17828
3.04726
2.9186
2.79161
2.66572
2.54054
2.41574
2.29112
2.16653
2.04191
1.91723
1.7925
1.66773
1.54296
1.41824
1.29361
1.16911
1.04479
0.920666
0.796783
0.673157
0.549784
0.426757
0.303835
0.18185
0.0593937
5.16091
4.68992
4.32614
4.11088
3.92763
3.75731
3.60159
3.45595
3.31659
3.18174
3.05028
2.92127
2.79401
2.66791
2.54256
2.41763
2.29291
2.16826
2.0436
1.91889
1.79414
1.66936
1.54459
1.41987
1.29524
1.17074
1.04641
0.922299
0.798424
0.674806
0.551454
0.428417
0.305716
0.183599
0.0665181
5.57178
4.50741
4.27927
4.08535
3.90635
3.74372
3.59237
3.44887
3.31101
3.17736
3.04686
2.91866
2.79206
2.66648
2.54151
2.41683
2.29225
2.16764
2.04297
1.9182
1.79337
1.6685
1.54365
1.41884
1.29413
1.16956
1.04516
0.920994
0.797068
0.673419
0.550013
0.427004
0.303742
0.18241
0.0539932
5.57432
4.50616
4.27899
4.0852
3.90628
3.74368
3.59236
3.44887
3.31103
3.17739
3.0469
2.91871
2.7921
2.66653
2.54155
2.41687
2.29229
2.16768
2.043
1.91824
1.7934
1.66853
1.54367
1.41886
1.29415
1.16959
1.0452
0.921019
0.797081
0.673399
0.549952
0.426928
0.303659
0.182456
0.0541129
5.38663
4.57681
4.29492
4.09538
3.9143
3.74909
3.59624
3.45182
3.31324
3.17896
3.0479
2.9192
2.79217
2.66625
2.54104
2.41621
2.29156
2.16694
2.04229
1.91758
1.79281
1.66801
1.54322
1.41848
1.29382
1.16931
1.04496
0.920824
0.79693
0.673296
0.549915
0.426885
0.303905
0.181992
0.0585253
5.46031
4.54364
4.28983
4.09112
3.91157
3.747
3.59444
3.45024
3.31185
3.17773
3.0468
2.91821
2.79127
2.66544
2.54029
2.41552
2.29092
2.16635
2.04174
1.91707
1.79235
1.66759
1.54283
1.41812
1.29349
1.169
1.04467
0.920557
0.796677
0.673052
0.549677
0.42665
0.303722
0.181767
0.0591176
5.22568
4.65755
4.31595
4.10682
3.9234
3.7547
3.60001
3.45476
3.31566
3.18101
3.04969
2.92079
2.7936
2.66757
2.54226
2.41737
2.29267
2.16803
2.04336
1.91863
1.79384
1.66903
1.54422
1.41946
1.29478
1.17024
1.04588
0.921724
0.797816
0.674168
0.550783
0.427718
0.304911
0.182672
0.062937
5.3764
4.57806
4.29668
4.09601
3.91502
3.74956
3.5965
3.45197
3.31331
3.17897
3.04786
2.91913
2.79207
2.66614
2.54091
2.41607
2.29142
2.16681
2.04216
1.91746
1.79271
1.66793
1.54315
1.41842
1.29377
1.16926
1.04493
0.920798
0.79691
0.67328
0.549903
0.426871
0.303946
0.181938
0.0594973
5.36808
4.57299
4.29975
4.09668
3.91592
3.75008
3.5967
3.452
3.31324
3.17882
3.04766
2.91889
2.7918
2.66584
2.54059
2.41575
2.2911
2.1665
2.04187
1.91719
1.79245
1.66769
1.54293
1.41822
1.2936
1.16911
1.04479
0.920677
0.7968
0.67318
0.549817
0.426793
0.304001
0.181801
0.0615524
5.30153
4.62446
4.30441
4.10194
3.91885
3.75186
3.59822
3.45345
3.31466
3.18026
3.04913
2.92038
2.79331
2.66736
2.54209
2.41721
2.29251
2.16784
2.04314
1.91838
1.79356
1.66872
1.54389
1.41911
1.29442
1.16987
1.04549
0.921325
0.797408
0.673758
0.550372
0.427328
0.304409
0.182352
0.059382
5.45954
4.54584
4.28844
4.09119
3.91106
3.74679
3.59444
3.45032
3.31199
3.17793
3.04707
2.91855
2.79167
2.66589
2.54078
2.41603
2.29143
2.16686
2.04223
1.91754
1.79278
1.66799
1.5432
1.41845
1.29379
1.16927
1.04492
0.920783
0.796884
0.673244
0.549851
0.426822
0.303748
0.182021
0.0570332
5.45131
4.54732
4.29196
4.09196
3.91244
3.74761
3.59485
3.45053
3.31206
3.17787
3.04689
2.91826
2.79128
2.66541
2.54023
2.41545
2.29083
2.16626
2.04165
1.91698
1.79226
1.6675
1.54275
1.41805
1.29343
1.16895
1.04463
0.92052
0.796645
0.673024
0.549659
0.42664
0.303796
0.18173
0.0603365
5.24482
4.65453
4.31178
4.10541
3.92214
3.75381
3.59944
3.45436
3.31537
3.1808
3.04954
2.92069
2.79354
2.66754
2.54225
2.41737
2.29267
2.16803
2.04337
1.91865
1.79388
1.66908
1.54429
1.41953
1.29487
1.17033
1.04596
0.921792
0.797867
0.674202
0.550796
0.427722
0.304838
0.182662
0.0609644
5.25355
4.64281
4.31165
4.10449
3.92158
3.7536
3.5993
3.45424
3.31527
3.18071
3.04944
2.92058
2.7934
2.66736
2.54203
2.41709
2.29235
2.16766
2.04295
1.91819
1.79339
1.66857
1.54376
1.41901
1.29434
1.16981
1.04546
0.921321
0.797424
0.673785
0.550404
0.427347
0.304523
0.182303
0.0622867
5.29378
4.61969
4.30641
4.10149
3.91918
3.75217
3.59836
3.45351
3.31465
3.18015
3.04891
2.92006
2.79289
2.66685
2.54153
2.41662
2.2919
2.16724
2.04256
1.91783
1.79305
1.66825
1.54345
1.41871
1.29405
1.16954
1.04519
0.921057
0.797165
0.673532
0.550154
0.427104
0.304257
0.182065
0.0615187
5.41126
4.55837
4.29431
4.09364
3.9135
3.74835
3.59541
3.45098
3.31242
3.17816
3.04714
2.91847
2.79146
2.66557
2.54038
2.41558
2.29095
2.16637
2.04176
1.91708
1.79235
1.66759
1.54284
1.41813
1.2935
1.16901
1.04469
0.92058
0.796703
0.673082
0.549716
0.426692
0.303825
0.181761
0.0601733
5.535
4.52226
4.2823
4.08718
3.90811