/*--------------------------------*- C++ -*----------------------------------*\
| =========                 |                                                 |
| \\      /  F ield         | OpenFOAM: The Open Source CFD Toolbox           |
|  \\    /   O peration     | Version:  2.4.x                                 |
|   \\  /    A nd           | Web:      www.OpenFOAM.org                      |
|    \\/     M anipulation  |                                                 |
\*---------------------------------------------------------------------------*/
FoamFile
{
    version     2.0;
    format      ascii;
    class       surfaceScalarField;
    location    "9980/coolant";
    object      phi;
}
// * * * * * * * * * * * * * * * * * * * * * * * * * * * * * * * * * * * * * //

dimensions      [1 0 -1 0 0 0 0];

internalField   nonuniform List<scalar> 
315644
(
6.31237e-05
1.01351e-05
-1.73788e-05
2.12953e-05
-1.74779e-05
6.47647e-05
4.87589e-06
-7.93482e-06
9.80222e-06
-8.38423e-06
6.59692e-05
3.73338e-06
-6.01263e-06
7.45892e-06
-6.38422e-06
6.68888e-05
3.15591e-06
-4.86536e-06
6.09458e-06
-5.30465e-06
6.7636e-05
2.64317e-06
-3.96844e-06
4.98939e-06
-4.4114e-06
6.82551e-05
2.34153e-06
-3.43187e-06
4.34485e-06
-3.87362e-06
6.8761e-05
2.148e-06
-3.06587e-06
3.92398e-06
-3.51195e-06
6.91567e-05
1.99394e-06
-2.76537e-06
3.59218e-06
-3.21651e-06
6.94427e-05
1.86228e-06
-2.50145e-06
3.3115e-06
-2.95833e-06
6.96221e-05
1.74445e-06
-2.26086e-06
3.06107e-06
-2.72397e-06
6.97037e-05
1.63397e-06
-2.03619e-06
2.82575e-06
-2.50519e-06
6.97035e-05
1.52775e-06
-1.82553e-06
2.59767e-06
-2.29962e-06
6.96419e-05
1.4253e-06
-1.62971e-06
2.37418e-06
-2.10816e-06
6.9541e-05
1.32751e-06
-1.45009e-06
2.15596e-06
-1.93254e-06
6.94213e-05
1.23568e-06
-1.2877e-06
1.94567e-06
-1.77397e-06
6.92993e-05
1.15082e-06
-1.14266e-06
1.74636e-06
-1.63251e-06
6.9187e-05
1.07341e-06
-1.0143e-06
1.56059e-06
-1.50737e-06
6.90922e-05
1.00336e-06
-9.01352e-07
1.38991e-06
-1.39713e-06
6.90195e-05
9.4018e-07
-8.02241e-07
1.23472e-06
-1.29998e-06
6.89711e-05
8.83218e-07
-7.15332e-07
1.09468e-06
-1.21411e-06
6.89473e-05
8.31816e-07
-6.39058e-07
9.68901e-07
-1.13785e-06
6.89474e-05
7.85347e-07
-5.71948e-07
8.56177e-07
-1.06969e-06
6.897e-05
7.43181e-07
-5.1263e-07
7.55093e-07
-1.00828e-06
6.90134e-05
7.04659e-07
-4.59846e-07
6.64176e-07
-9.52325e-07
6.90754e-05
6.69112e-07
-4.12495e-07
5.8206e-07
-9.00694e-07
6.9154e-05
6.35961e-07
-3.69685e-07
5.07622e-07
-8.52472e-07
6.92469e-05
6.04667e-07
-3.30696e-07
4.39967e-07
-8.06893e-07
6.93522e-05
5.75062e-07
-2.94957e-07
3.78305e-07
-7.6363e-07
6.94677e-05
5.46936e-07
-2.61904e-07
3.21781e-07
-7.22374e-07
6.9592e-05
5.20132e-07
-2.31011e-07
2.69552e-07
-6.82933e-07
6.97235e-05
4.93845e-07
-2.00722e-07
2.19297e-07
-6.43958e-07
6.98612e-05
4.68088e-07
-1.71506e-07
1.71582e-07
-6.0588e-07
7.00008e-05
4.35327e-07
-1.36149e-07
1.1785e-07
-5.56679e-07
7.01483e-05
4.02837e-07
-1.00015e-07
6.10621e-08
-5.11381e-07
1.93574e-07
6.80785e-08
-1.3677e-07
-2.09256e-07
4.13527e-05
9.661e-06
-9.79709e-06
-2.17591e-05
2.01976e-05
4.18118e-05
3.01277e-06
-3.18638e-06
-9.43016e-06
9.14473e-06
4.18383e-05
2.15019e-06
-2.1994e-06
-6.74042e-06
6.76306e-06
4.15599e-05
1.39721e-06
-1.39218e-06
-4.98202e-06
5.25545e-06
4.1119e-05
9.43701e-07
-9.05213e-07
-3.71951e-06
4.12193e-06
4.05903e-05
6.68689e-07
-6.08448e-07
-2.892e-06
3.36037e-06
4.00395e-05
4.6025e-07
-3.95993e-07
-2.31404e-06
2.80061e-06
3.95142e-05
2.88363e-07
-2.3334e-07
-1.88536e-06
2.35567e-06
3.90419e-05
1.45316e-07
-1.07198e-07
-1.56669e-06
2.00083e-06
3.86348e-05
2.51845e-08
-7.22268e-09
-1.33141e-06
1.72057e-06
3.8295e-05
-7.69107e-08
7.43754e-08
-1.15852e-06
1.50088e-06
3.80191e-05
-1.64458e-07
1.42692e-07
-1.03271e-06
1.33038e-06
3.7801e-05
-2.40632e-07
2.01603e-07
-9.42474e-07
1.19955e-06
3.76341e-05
-3.07847e-07
2.53419e-07
-8.78929e-07
1.10031e-06
3.75116e-05
-3.67235e-07
2.99101e-07
-8.34944e-07
1.02558e-06
3.74274e-05
-4.19314e-07
3.39142e-07
-8.0476e-07
9.69128e-07
3.7376e-05
-4.64593e-07
3.73901e-07
-7.83973e-07
9.26066e-07
3.73524e-05
-5.03398e-07
4.03672e-07
-7.6908e-07
8.9237e-07
3.73523e-05
-5.36015e-07
4.28647e-07
-7.57449e-07
8.64915e-07
3.73719e-05
-5.62793e-07
4.49061e-07
-7.47193e-07
8.4137e-07
3.74078e-05
-5.84136e-07
4.65191e-07
-7.3698e-07
8.20026e-07
3.74571e-05
-6.00498e-07
4.77379e-07
-7.25944e-07
7.99689e-07
3.75175e-05
-6.12294e-07
4.85961e-07
-7.13571e-07
7.79535e-07
3.75867e-05
-6.19879e-07
4.91243e-07
-6.99566e-07
7.58988e-07
3.76629e-05
-6.23592e-07
4.93532e-07
-6.83753e-07
7.37635e-07
3.77444e-05
-6.23774e-07
4.93167e-07
-6.6617e-07
7.1531e-07
3.78296e-05
-6.20694e-07
4.90412e-07
-6.46939e-07
6.91957e-07
3.79174e-05
-6.1483e-07
4.85687e-07
-6.26634e-07
6.67994e-07
3.80068e-05
-6.06652e-07
4.79304e-07
-6.05864e-07
6.43885e-07
3.8097e-05
-5.96654e-07
4.71471e-07
-5.85162e-07
6.20061e-07
3.81879e-05
-5.85229e-07
4.62389e-07
-5.63797e-07
5.95749e-07
3.82793e-05
-5.7274e-07
4.52292e-07
-5.42593e-07
5.71652e-07
3.83689e-05
-5.51554e-07
4.34652e-07
-5.05518e-07
5.32778e-07
3.84604e-05
-5.44999e-07
4.31763e-07
-4.88633e-07
5.10354e-07
-3.38805e-07
2.61128e-07
-1.68065e-07
1.97003e-07
8.40709e-06
1.04825e-05
-3.67634e-06
-6.90673e-06
3.43268e-06
6.96712e-06
3.1339e-06
-9.8341e-07
-1.63527e-06
9.24748e-07
6.1168e-06
1.57489e-06
-3.19615e-07
-7.08439e-07
3.03488e-07
5.67758e-06
8.31458e-07
-2.96884e-08
-3.45191e-07
-1.73606e-08
5.43776e-06
5.002e-07
2.72297e-08
-2.00377e-07
-8.72288e-08
5.29761e-06
3.58856e-07
7.68101e-08
-1.51576e-07
-1.43946e-07
5.21343e-06
2.93675e-07
1.205e-07
-1.34496e-07
-1.95502e-07
5.16278e-06
2.62328e-07
1.54481e-07
-1.29209e-07
-2.36944e-07
5.13285e-06
2.49883e-07
1.83606e-07
-1.30711e-07
-2.72847e-07
5.11597e-06
2.49974e-07
2.11365e-07
-1.37153e-07
-3.07312e-07
5.10713e-06
2.59067e-07
2.39393e-07
-1.4739e-07
-3.42225e-07
5.10272e-06
2.74469e-07
2.67465e-07
-1.60246e-07
-3.77277e-07
5.10003e-06
2.93432e-07
2.94235e-07
-1.74228e-07
-4.10749e-07
5.09698e-06
3.13104e-07
3.17775e-07
-1.87653e-07
-4.40178e-07
5.09208e-06
3.31026e-07
3.36344e-07
-1.99115e-07
-4.63357e-07
5.08438e-06
3.45505e-07
3.48989e-07
-2.07743e-07
-4.79046e-07
5.07338e-06
3.55643e-07
3.55553e-07
-2.13187e-07
-4.87013e-07
5.059e-06
3.61208e-07
3.56492e-07
-2.15506e-07
-4.87811e-07
5.04142e-06
3.62467e-07
3.52678e-07
-2.15046e-07
-4.82521e-07
5.02104e-06
3.59979e-07
3.45141e-07
-2.12294e-07
-4.7244e-07
4.99833e-06
3.54433e-07
3.34907e-07
-2.0777e-07
-4.58862e-07
4.97382e-06
3.46556e-07
3.22913e-07
-2.01984e-07
-4.42978e-07
4.94802e-06
3.37021e-07
3.09938e-07
-1.95377e-07
-4.25779e-07
4.92138e-06
3.26402e-07
2.96575e-07
-1.88306e-07
-4.08028e-07
4.89429e-06
3.15144e-07
2.8325e-07
-1.81031e-07
-3.9028e-07
4.86711e-06
3.03564e-07
2.70228e-07
-1.7372e-07
-3.7288e-07
4.8401e-06
2.91843e-07
2.57689e-07
-1.66456e-07
-3.56062e-07
4.81352e-06
2.79992e-07
2.45656e-07
-1.59205e-07
-3.39864e-07
4.78762e-06
2.6811e-07
2.34195e-07
-1.52017e-07
-3.24369e-07
4.76255e-06
2.56439e-07
2.23499e-07
-1.45055e-07
-3.09832e-07
4.73849e-06
2.44705e-07
2.12773e-07
-1.38093e-07
-2.95329e-07
4.71524e-06
2.36143e-07
2.04681e-07
-1.3346e-07
-2.84117e-07
4.6934e-06
2.1837e-07
1.85496e-07
-1.22198e-07
-2.59901e-07
4.66919e-06
2.32473e-07
1.94955e-07
-1.3359e-07
-2.69555e-07
7.97758e-08
3.98127e-09
-2.36958e-08
-4.27976e-08
1.66052e-05
1.67385e-05
8.11954e-06
-1.26971e-05
-1.09851e-05
1.57608e-05
6.06222e-06
2.78039e-06
-4.29543e-06
-3.70277e-06
1.48869e-05
3.67465e-06
1.64195e-06
-2.3872e-06
-2.05549e-06
1.41823e-05
2.25289e-06
9.06127e-07
-1.36437e-06
-1.09008e-06
1.36625e-05
1.41512e-06
5.12767e-07
-8.08445e-07
-5.9964e-07
1.32839e-05
9.48633e-07
3.02778e-07
-5.20921e-07
-3.51913e-07
1.30091e-05
6.71135e-07
1.77203e-07
-3.6095e-07
-2.12577e-07
1.28104e-05
4.91791e-07
9.60749e-08
-2.62448e-07
-1.26681e-07
1.26672e-05
3.73414e-07
4.20045e-08
-2.00321e-07
-7.18907e-08
1.2565e-05
2.94661e-07
4.37809e-09
-1.6119e-07
-3.5701e-08
1.24938e-05
2.4187e-07
-2.35022e-08
-1.36748e-07
-1.04064e-08
1.24463e-05
2.06648e-07
-4.55347e-08
-1.22017e-07
8.41226e-09
1.24175e-05
1.83515e-07
-6.38768e-08
-1.13897e-07
2.30855e-08
1.24037e-05
1.68707e-07
-7.97281e-08
-1.10201e-07
3.50379e-08
1.2402e-05
1.59566e-07
-9.3654e-08
-1.09345e-07
4.50498e-08
1.24104e-05
1.54144e-07
-1.05848e-07
-1.10153e-07
5.35035e-08
1.24269e-05
1.51028e-07
-1.16419e-07
-1.11777e-07
6.06679e-08
1.24501e-05
1.49232e-07
-1.2545e-07
-1.1365e-07
6.67133e-08
1.24786e-05
1.48036e-07
-1.32993e-07
-1.15367e-07
7.17479e-08
1.25116e-05
1.46948e-07
-1.39106e-07
-1.16663e-07
7.58511e-08
1.25481e-05
1.45646e-07
-1.43849e-07
-1.17379e-07
7.90776e-08
1.25874e-05
1.43956e-07
-1.4731e-07
-1.17454e-07
8.14885e-08
1.2629e-05
1.41802e-07
-1.496e-07
-1.16894e-07
8.31613e-08
1.26722e-05
1.39145e-07
-1.50837e-07
-1.15728e-07
8.41825e-08
1.27167e-05
1.35938e-07
-1.51171e-07
-1.13966e-07
8.46834e-08
1.27621e-05
1.32179e-07
-1.50801e-07
-1.11647e-07
8.48327e-08
1.28082e-05
1.27856e-07
-1.49867e-07
-1.08773e-07
8.47469e-08
1.28545e-05
1.23164e-07
-1.48511e-07
-1.05498e-07
8.44941e-08
1.2901e-05
1.18373e-07
-1.46693e-07
-1.02032e-07
8.39375e-08
1.29472e-05
1.13712e-07
-1.44222e-07
-9.85516e-08
8.28154e-08
1.29931e-05
1.08988e-07
-1.41077e-07
-9.4994e-08
8.11387e-08
1.30388e-05
1.04349e-07
-1.37388e-07
-9.15999e-08
7.8988e-08
1.30832e-05
9.31145e-08
-1.31074e-07
-8.2609e-08
7.6207e-08
1.31302e-05
8.83231e-08
-1.3297e-07
-8.14546e-08
7.90362e-08
-5.02642e-08
-7.2341e-08
3.76359e-08
5.90022e-08
8.29192e-06
-3.67002e-06
2.54192e-06
-7.41529e-06
1.21453e-05
6.82184e-06
-8.38037e-07
4.99319e-07
-1.81245e-06
3.62125e-06
5.97978e-06
-3.57818e-07
2.29717e-07
-6.87719e-07
1.65788e-06
5.54464e-06
-9.6878e-08
1.59198e-08
-3.16732e-07
8.32823e-07
5.30767e-06
-5.90303e-08
-1.60973e-09
-1.43943e-07
4.41556e-07
5.16883e-06
-2.46626e-08
-2.70791e-08
-8.78995e-08
2.78477e-07
5.08433e-06
1.22735e-08
-6.32729e-08
-7.3597e-08
2.09097e-07
5.03268e-06
4.25334e-08
-9.62908e-08
-7.21091e-08
1.77516e-07
5.00215e-06
6.89399e-08
-1.27249e-07
-7.79371e-08
1.66782e-07
4.98575e-06
9.36808e-08
-1.57574e-07
-8.83381e-08
1.68631e-07
4.97925e-06
1.17502e-07
-1.87758e-07
-1.01527e-07
1.78286e-07
4.97997e-06
1.40866e-07
-2.18091e-07
-1.16529e-07
1.93037e-07
4.98611e-06
1.63681e-07
-2.48255e-07
-1.32443e-07
2.10875e-07
4.99638e-06
1.85463e-07
-2.77445e-07
-1.48347e-07
2.30056e-07
5.00978e-06
2.05535e-07
-3.04606e-07
-1.63344e-07
2.49019e-07
5.02545e-06
2.23247e-07
-3.28714e-07
-1.76688e-07
2.66479e-07
5.04267e-06
2.38123e-07
-3.48987e-07
-1.87858e-07
2.81505e-07
5.06077e-06
2.49933e-07
-3.64998e-07
-1.96592e-07
2.93554e-07
5.0792e-06
2.58609e-07
-3.76593e-07
-2.02814e-07
3.02371e-07
5.09748e-06
2.64255e-07
-3.83883e-07
-2.06606e-07
3.07951e-07
5.11525e-06
2.671e-07
-3.87177e-07
-2.08162e-07
3.1047e-07
5.13223e-06
2.67413e-07
-3.86874e-07
-2.07733e-07
3.10216e-07
5.14822e-06
2.65515e-07
-3.83454e-07
-2.05619e-07
3.07569e-07
5.1631e-06
2.61737e-07
-3.77419e-07
-2.0212e-07
3.0292e-07
5.17683e-06
2.56412e-07
-3.6926e-07
-1.97515e-07
2.96639e-07
5.18939e-06
2.49877e-07
-3.59464e-07
-1.92073e-07
2.89095e-07
5.20087e-06
2.42501e-07
-3.48528e-07
-1.86042e-07
2.80605e-07
5.21134e-06
2.34576e-07
-3.36857e-07
-1.79606e-07
2.71416e-07
5.22096e-06
2.26322e-07
-3.24765e-07
-1.72918e-07
2.61764e-07
5.22984e-06
2.17888e-07
-3.12509e-07
-1.66141e-07
2.51864e-07
5.2381e-06
2.08353e-07
-2.99063e-07
-1.58649e-07
2.41108e-07
5.24575e-06
1.99399e-07
-2.86519e-07
-1.52187e-07
2.31629e-07
5.25258e-06
1.78199e-07
-2.59275e-07
-1.35849e-07
2.10034e-07
5.25764e-06
1.83737e-07
-2.63525e-07
-1.43791e-07
2.18563e-07
-4.4139e-08
1.07962e-08
3.48934e-08
-2.39426e-09
4.58921e-05
-1.23272e-05
-2.0843e-05
1.24874e-05
1.87418e-05
4.64432e-05
-4.93426e-06
-8.66872e-06
4.97211e-06
8.07971e-06
4.65482e-05
-3.56617e-06
-6.09376e-06
3.66569e-06
5.88922e-06
4.63166e-05
-2.63498e-06
-4.34502e-06
2.75976e-06
4.4519e-06
4.58955e-05
-1.96494e-06
-3.13658e-06
2.10567e-06
3.41698e-06
4.53581e-05
-1.52445e-06
-2.35866e-06
1.68084e-06
2.7396e-06
4.47749e-05
-1.20659e-06
-1.81428e-06
1.36651e-06
2.23764e-06
4.42018e-05
-9.60501e-07
-1.40715e-06
1.1108e-06
1.82988e-06
4.3675e-05
-7.70438e-07
-1.10161e-06
9.02234e-07
1.49663e-06
4.32128e-05
-6.25114e-07
-8.73189e-07
7.33808e-07
1.2267e-06
4.28213e-05
-5.14367e-07
-7.01924e-07
5.98356e-07
1.00941e-06
4.24993e-05
-4.30212e-07
-5.73024e-07
4.89706e-07
8.35527e-07
4.22418e-05
-3.66266e-07
-4.75633e-07
4.02519e-07
6.96938e-07
4.20421e-05
-3.17597e-07
-4.01534e-07
3.32377e-07
5.8646e-07
4.18933e-05
-2.80409e-07
-3.44675e-07
2.75724e-07
4.98132e-07
4.17888e-05
-2.51689e-07
-3.00616e-07
2.29627e-07
4.27159e-07
4.17225e-05
-2.29188e-07
-2.65985e-07
1.91816e-07
3.69639e-07
4.1689e-05
-2.11236e-07
-2.38274e-07
1.60564e-07
3.22482e-07
4.16834e-05
-1.96532e-07
-2.1565e-07
1.34431e-07
2.83344e-07
4.17015e-05
-1.84096e-07
-1.96811e-07
1.12276e-07
2.50504e-07
4.17397e-05
-1.73209e-07
-1.80854e-07
9.32446e-08
2.22673e-07
4.17946e-05
-1.63376e-07
-1.67127e-07
7.66824e-08
1.98851e-07
4.18637e-05
-1.54248e-07
-1.55114e-07
6.20819e-08
1.7823e-07
4.19445e-05
-1.45562e-07
-1.44401e-07
4.90437e-08
1.60158e-07
4.20349e-05
-1.37121e-07
-1.346e-07
3.72598e-08
1.44061e-07
4.21331e-05
-1.28856e-07
-1.2537e-07
2.65578e-08
1.29457e-07
4.22375e-05
-1.20724e-07
-1.16444e-07
1.68114e-08
1.15968e-07
4.23466e-05
-1.12946e-07
-1.07658e-07
8.12046e-09
1.03305e-07
4.24596e-05
-1.0565e-07
-9.90023e-08
4.3711e-10
9.12831e-08
4.25756e-05
-9.88685e-08
-9.04905e-08
-6.33983e-09
7.97378e-08
4.2694e-05
-9.22656e-08
-8.12364e-08
-1.26488e-08
6.7642e-08
4.28147e-05
-8.55849e-08
-7.18573e-08
-1.87469e-08
5.55131e-08
4.29344e-05
-7.44416e-08
-5.51707e-08
-2.70903e-08
3.70416e-08
4.30584e-05
-6.32792e-08
-4.09391e-08
-3.91201e-08
1.92398e-08
4.22498e-08
1.05219e-07
-1.02262e-07
-1.13051e-07
0.000313226
-1.94233e-05
-9.82666e-06
1.39773e-05
0.000321411
-1.18251e-05
-5.09291e-06
8.73293e-06
0.000327622
-8.77552e-06
-3.75096e-06
6.31549e-06
0.00033309
-7.76375e-06
-3.25831e-06
5.55472e-06
0.000337711
-6.67472e-06
-2.7062e-06
4.75966e-06
0.000341836
-6.00014e-06
-2.38166e-06
4.25668e-06
0.000345672
-5.60662e-06
-2.1918e-06
3.96263e-06
0.000349295
-5.32315e-06
-2.05149e-06
3.75104e-06
0.000352758
-5.11107e-06
-1.94329e-06
3.59211e-06
0.000356097
-4.95361e-06
-1.8593e-06
3.47318e-06
0.000359342
-4.83553e-06
-1.79213e-06
3.38285e-06
0.000362512
-4.74692e-06
-1.73699e-06
3.31373e-06
0.000365623
-4.681e-06
-1.69087e-06
3.2609e-06
0.000368687
-4.63209e-06
-1.65149e-06
3.22038e-06
0.00037171
-4.59518e-06
-1.61713e-06
3.18883e-06
0.000374699
-4.56583e-06
-1.5865e-06
3.16342e-06
0.000377656
-4.54029e-06
-1.55856e-06
3.14187e-06
0.000380581
-4.51558e-06
-1.53236e-06
3.12236e-06
0.000383474
-4.48946e-06
-1.50688e-06
3.10355e-06
0.000386331
-4.46046e-06
-1.48101e-06
3.08445e-06
0.000389148
-4.42773e-06
-1.45341e-06
3.06447e-06
0.000391918
-4.39091e-06
-1.42263e-06
3.04328e-06
0.000394634
-4.34997e-06
-1.3871e-06
3.02079e-06
0.000397288
-4.30488e-06
-1.34533e-06
2.99706e-06
0.000399867
-4.25548e-06
-1.29604e-06
2.97219e-06
0.00040236
-4.2013e-06
-1.23835e-06
2.9463e-06
0.000404754
-4.14149e-06
-1.17188e-06
2.91937e-06
0.000407035
-4.07492e-06
-1.09686e-06
2.89118e-06
0.000409188
-4.0003e-06
-1.01393e-06
2.86129e-06
0.0004112
-3.91662e-06
-9.24188e-07
2.82906e-06
0.000413057
-3.82103e-06
-8.28264e-07
2.79216e-06
0.000414749
-3.71423e-06
-7.28031e-07
2.7497e-06
0.000416257
-3.57106e-06
-6.19644e-07
2.68244e-06
0.000417571
-3.39722e-06
-4.93348e-07
2.57731e-06
-2.31047e-06
-1.56828e-07
1.67399e-06
3.71627e-05
2.07367e-05
-2.09607e-05
-1.40539e-05
1.31763e-05
3.7222e-05
9.48952e-06
-9.23967e-06
-4.42886e-06
4.11969e-06
3.68544e-05
6.92934e-06
-6.43961e-06
-3.00845e-06
2.88636e-06
3.625e-05
5.22307e-06
-4.60297e-06
-1.84375e-06
1.82809e-06
3.55778e-05
3.96951e-06
-3.32646e-06
-1.17651e-06
1.20562e-06
3.4916e-05
3.13346e-06
-2.51689e-06
-7.78022e-07
8.23223e-07
3.43138e-05
2.53581e-06
-1.97681e-06
-4.95154e-07
5.38393e-07
3.37947e-05
2.08539e-06
-1.59853e-06
-2.79823e-07
3.12082e-07
3.33626e-05
1.74747e-06
-1.33326e-06
-1.12593e-07
1.30429e-07
3.30117e-05
1.49698e-06
-1.14862e-06
1.99568e-08
-1.73597e-08
3.27322e-05
1.31347e-06
-1.02178e-06
1.27692e-07
-1.39938e-07
3.25141e-05
1.18134e-06
-9.3713e-07
2.17698e-07
-2.43845e-07
3.23485e-05
1.08855e-06
-8.83516e-07
2.94764e-07
-3.34134e-07
3.22274e-05
1.02481e-06
-8.52035e-07
3.62192e-07
-4.13898e-07
3.21441e-05
9.82116e-07
-8.35748e-07
4.21684e-07
-4.84774e-07
3.20926e-05
9.54323e-07
-8.29275e-07
4.73913e-07
-5.47411e-07
3.20674e-05
9.36329e-07
-8.28353e-07
5.19188e-07
-6.01992e-07
3.2064e-05
9.24107e-07
-8.29751e-07
5.577e-07
-6.48615e-07
3.20782e-05
9.14597e-07
-8.31063e-07
5.89633e-07
-6.87393e-07
3.21066e-05
9.05666e-07
-8.30687e-07
6.15225e-07
-7.18559e-07
3.2146e-05
8.95862e-07
-8.27642e-07
6.34868e-07
-7.42494e-07
3.21937e-05
8.84233e-07
-8.21399e-07
6.48954e-07
-7.59576e-07
3.22476e-05
8.70338e-07
-8.11861e-07
6.57843e-07
-7.70199e-07
3.23057e-05
8.54056e-07
-7.99181e-07
6.61933e-07
-7.74846e-07
3.23663e-05
8.35432e-07
-7.83623e-07
6.61655e-07
-7.74065e-07
3.24281e-05
8.14663e-07
-7.65548e-07
6.57461e-07
-7.68436e-07
3.24902e-05
7.91962e-07
-7.45296e-07
6.49925e-07
-7.58692e-07
3.25518e-05
7.67664e-07
-7.23273e-07
6.39556e-07
-7.45504e-07
3.26123e-05
7.4232e-07
-7.0005e-07
6.26759e-07
-7.29461e-07
3.26713e-05
7.166e-07
-6.76312e-07
6.11841e-07
-7.11141e-07
3.27287e-05
6.90091e-07
-6.51613e-07
5.94324e-07
-6.90198e-07
3.27846e-05
6.65075e-07
-6.28556e-07
5.75404e-07
-6.67928e-07
3.28382e-05
6.23517e-07
-5.88485e-07
5.44276e-07
-6.32985e-07
3.28928e-05
6.09916e-07
-5.8139e-07
5.35751e-07
-6.18804e-07
2.87251e-07
-2.56188e-07
2.73979e-07
-3.32857e-07
0.000229458
-2.7718e-05
1.6472e-05
-1.30011e-05
1.22376e-05
0.000235203
-1.48464e-05
7.68446e-06
-5.69839e-06
7.11525e-06
0.000239826
-1.12253e-05
5.85098e-06
-4.44473e-06
5.19575e-06
0.000243766
-9.64206e-06
5.01328e-06
-3.79078e-06
4.47941e-06
0.000247089
-8.13352e-06
4.11137e-06
-3.10495e-06
3.80494e-06
0.000250058
-7.23871e-06
3.59902e-06
-2.72214e-06
3.39263e-06
0.000252807
-6.69464e-06
3.29484e-06
-2.49306e-06
3.14364e-06
0.000255389
-6.29194e-06
3.06765e-06
-2.31965e-06
2.96196e-06
0.000257837
-5.97999e-06
2.89115e-06
-2.18264e-06
2.82367e-06
0.000260172
-5.73362e-06
2.7526e-06
-2.07222e-06
2.71761e-06
0.000262408
-5.531e-06
2.64e-06
-1.97899e-06
2.63448e-06
0.000264548
-5.35697e-06
2.5454e-06
-1.89652e-06
2.56826e-06
0.00026659
-5.20023e-06
2.46341e-06
-1.82029e-06
2.51473e-06
0.000268528
-5.05116e-06
2.38966e-06
-1.7466e-06
2.47028e-06
0.00027035
-4.90174e-06
2.32046e-06
-1.67226e-06
2.43162e-06
0.000272042
-4.7459e-06
2.25258e-06
-1.59453e-06
2.39563e-06
0.000273591
-4.57995e-06
2.18309e-06
-1.51126e-06
2.35946e-06
0.000274985
-4.40273e-06
2.10932e-06
-1.42119e-06
2.32061e-06
0.000276218
-4.21525e-06
2.02885e-06
-1.32428e-06
2.27699e-06
0.000277294
-4.02021e-06
1.93966e-06
-1.22174e-06
2.22705e-06
0.00027822
-3.82131e-06
1.84036e-06
-1.11579e-06
2.16993e-06
0.000279016
-3.62239e-06
1.73032e-06
-1.0091e-06
2.10545e-06
0.000279703
-3.42673e-06
1.60973e-06
-9.04158e-07
2.03406e-06
0.000280306
-3.23687e-06
1.47971e-06
-8.0281e-07
1.95679e-06
0.00028085
-3.05428e-06
1.34221e-06
-7.06201e-07
1.87501e-06
0.000281354
-2.87957e-06
1.19993e-06
-6.15127e-07
1.79022e-06
0.000281837
-2.7129e-06
1.05591e-06
-5.29829e-07
1.70394e-06
0.000282311
-2.55407e-06
9.13357e-07
-4.50476e-07
1.61746e-06
0.000282784
-2.40244e-06
7.74837e-07
-3.76906e-07
1.53177e-06
0.00028326
-2.25744e-06
6.42069e-07
-3.08716e-07
1.44758e-06
0.000283742
-2.11613e-06
5.1488e-07
-2.44432e-07
1.36408e-06
0.000284229
-1.97991e-06
3.93939e-07
-1.83685e-07
1.28213e-06
0.000284712
-1.82373e-06
2.7303e-07
-1.2192e-07
1.18925e-06
0.0002852
-1.66604e-06
1.35352e-07
-4.73241e-08
1.09095e-06
-9.21158e-07
-1.36176e-07
1.10744e-07
6.18514e-07
7.67309e-06
1.25208e-05
-1.20438e-07
-3.28138e-06
-8.35495e-06
7.16665e-06
4.26871e-06
-1.56073e-07
-9.77325e-07
-2.62888e-06
6.67252e-06
2.54049e-06
-1.72743e-07
-4.66908e-07
-1.4067e-06
6.31784e-06
1.42054e-06
-1.89473e-07
-1.64477e-07
-7.11918e-07
6.07335e-06
8.60499e-07
-1.76112e-07
-4.20786e-08
-3.97818e-07
5.90401e-06
5.4651e-07
-1.79327e-07
3.34325e-08
-2.31278e-07
5.78601e-06
3.53758e-07
-1.90984e-07
8.71491e-08
-1.31924e-07
5.70311e-06
2.31972e-07
-2.05345e-07
1.2639e-07
-7.01101e-08
5.64416e-06
1.5338e-07
-2.2155e-07
1.57459e-07
-3.03474e-08
5.60137e-06
1.02485e-07
-2.39104e-07
1.83699e-07
-4.28904e-09
5.56901e-06
7.08686e-08
-2.57344e-07
2.06488e-07
1.23548e-08
5.54282e-06
5.36477e-08
-2.75788e-07
2.26429e-07
2.18978e-08
5.51947e-06
4.74592e-08
-2.93235e-07
2.43195e-07
2.59322e-08
5.49653e-06
4.927e-08
-3.08043e-07
2.55981e-07
2.57309e-08
5.47241e-06
5.63564e-08
-3.18987e-07
2.64257e-07
2.24893e-08
5.44622e-06
6.63873e-08
-3.25436e-07
2.67942e-07
1.72992e-08
5.41758e-06
7.75061e-08
-3.27384e-07
2.67418e-07
1.10972e-08
5.38651e-06
8.83497e-08
-3.25303e-07
2.6339e-07
4.63472e-09
5.35326e-06
9.80105e-08
-3.19907e-07
2.56688e-07
-1.53454e-09
5.31823e-06
1.05977e-07
-3.1199e-07
2.48116e-07
-7.07801e-09
5.28193e-06
1.12056e-07
-3.0233e-07
2.38398e-07
-1.1824e-08
5.24482e-06
1.16306e-07
-2.91609e-07
2.28131e-07
-1.57137e-08
5.2073e-06
1.18905e-07
-2.80347e-07
2.17737e-07
-1.87806e-08
5.16976e-06
1.20056e-07
-2.68917e-07
2.07505e-07
-2.10975e-08
5.13249e-06
1.20009e-07
-2.57592e-07
1.97622e-07
-2.2771e-08
5.09574e-06
1.19037e-07
-2.46555e-07
1.882e-07
-2.39302e-08
5.05971e-06
1.17305e-07
-2.35926e-07
1.79305e-07
-2.46522e-08
5.02454e-06
1.14975e-07
-2.25874e-07
1.71052e-07
-2.49808e-08
4.99035e-06
1.11996e-07
-2.16387e-07
1.63446e-07
-2.48487e-08
4.95719e-06
1.08348e-07
-2.07746e-07
1.56705e-07
-2.41528e-08
4.9252e-06
1.03844e-07
-1.99236e-07
1.50246e-07
-2.28369e-08
4.89414e-06
9.96179e-08
-1.9222e-07
1.4499e-07
-2.13526e-08
4.86532e-06
9.2383e-08
-1.78222e-07
1.33972e-07
-1.93543e-08
4.8348e-06
9.88885e-08
-1.8069e-07
1.34923e-07
-2.25988e-08
8.9206e-08
-7.20152e-08
3.71663e-08
-3.55968e-08
1.15129e-05
-7.15033e-06
1.45897e-05
1.03352e-07
-6.52526e-06
1.07895e-05
-2.25951e-06
5.0204e-06
-1.72662e-07
-1.86485e-06
1.00843e-05
-1.24843e-06
3.04474e-06
-2.32144e-07
-8.58984e-07
9.56612e-06
-6.82496e-07
1.75818e-06
-2.60575e-07
-2.96938e-07
9.20413e-06
-4.16251e-07
1.09552e-06
-2.41786e-07
-7.54922e-08
8.94999e-06
-2.797e-07
7.18264e-07
-2.41476e-07
5.70494e-08
8.77014e-06
-2.02775e-07
4.85819e-07
-2.51206e-07
1.48013e-07
8.64197e-06
-1.57443e-07
3.37789e-07
-2.63552e-07
2.11379e-07
8.54963e-06
-1.30842e-07
2.41812e-07
-2.77654e-07
2.59026e-07
8.48186e-06
-1.16123e-07
1.79376e-07
-2.92967e-07
2.9748e-07
8.43028e-06
-1.0957e-07
1.40638e-07
-3.09112e-07
3.29629e-07
8.38836e-06
-1.09247e-07
1.20153e-07
-3.25743e-07
3.56758e-07
8.35118e-06
-1.13417e-07
1.13558e-07
-3.41854e-07
3.78893e-07
8.31511e-06
-1.20232e-07
1.16906e-07
-3.55757e-07
3.95145e-07
8.27771e-06
-1.28053e-07
1.2665e-07
-3.66034e-07
4.04843e-07
8.23751e-06
-1.35645e-07
1.39786e-07
-3.71985e-07
4.08048e-07
8.19386e-06
-1.42177e-07
1.53932e-07
-3.73559e-07
4.05444e-07
8.14675e-06
-1.47173e-07
1.67359e-07
-3.71165e-07
3.98099e-07
8.0965e-06
-1.50451e-07
1.78952e-07
-3.65476e-07
3.87221e-07
8.04371e-06
-1.52034e-07
1.8811e-07
-3.57231e-07
3.73947e-07
7.98905e-06
-1.52076e-07
1.94635e-07
-3.47135e-07
3.59238e-07
7.93319e-06
-1.50828e-07
1.98638e-07
-3.35839e-07
3.43881e-07
7.87679e-06
-1.48566e-07
2.0039e-07
-3.23878e-07
3.28457e-07
7.82039e-06
-1.45534e-07
2.00236e-07
-3.11654e-07
3.13358e-07
7.76443e-06
-1.41939e-07
1.9852e-07
-2.99469e-07
2.98844e-07
7.70928e-06
-1.37877e-07
1.95459e-07
-2.87435e-07
2.85004e-07
7.65522e-06
-1.33402e-07
1.91202e-07
-2.75622e-07
2.71891e-07
7.60243e-06
-1.28465e-07
1.85772e-07
-2.6392e-07
2.59395e-07
7.55107e-06
-1.23208e-07
1.79482e-07
-2.5235e-07
2.47451e-07
7.50118e-06
-1.18119e-07
1.73058e-07
-2.41385e-07
2.36321e-07
7.45298e-06
-1.13533e-07
1.67171e-07
-2.30737e-07
2.25305e-07
7.40622e-06
-1.11648e-07
1.64907e-07
-2.23315e-07
2.16819e-07
7.36292e-06
-1.07478e-07
1.5975e-07
-2.09779e-07
2.00747e-07
7.31773e-06
-1.16431e-07
1.74064e-07
-2.16044e-07
2.03676e-07
-7.07963e-08
1.36371e-07
-9.63664e-08
5.89261e-08
1.38967e-05
-9.05555e-06
-6.71536e-06
8.29885e-06
9.30828e-06
1.2747e-05
-2.64458e-06
-2.24622e-06
3.06084e-06
2.97965e-06
1.17519e-05
-1.23287e-06
-1.3422e-06
1.92323e-06
1.64694e-06
1.10654e-05
-5.15887e-07
-8.34527e-07
1.24225e-06
7.94663e-07
1.06105e-05
-2.3982e-07
-5.67743e-07
8.61797e-07
4.00679e-07
1.03064e-05
-9.73237e-08
-4.52301e-07
6.82094e-07
1.71653e-07
1.01016e-05
-1.04048e-08
-4.04166e-07
5.98535e-07
2.08305e-08
9.96237e-06
4.51622e-08
-3.8765e-07
5.62929e-07
-8.11982e-08
9.86652e-06
8.32709e-08
-3.89908e-07
5.55974e-07
-1.5349e-07
9.79948e-06
1.11606e-07
-4.04623e-07
5.6799e-07
-2.07931e-07
9.75088e-06
1.33994e-07
-4.27858e-07
5.93277e-07
-2.5082e-07
9.71317e-06
1.51909e-07
-4.56872e-07
6.27611e-07
-2.8493e-07
9.68063e-06
1.65575e-07
-4.88163e-07
6.66105e-07
-3.10983e-07
9.64908e-06
1.74922e-07
-5.17818e-07
7.03599e-07
-3.29156e-07
9.61567e-06
1.79945e-07
-5.42594e-07
7.35677e-07
-3.39613e-07
9.57866e-06
1.80946e-07
-5.60427e-07
7.5941e-07
-3.42919e-07
9.53723e-06
1.78517e-07
-5.70554e-07
7.73544e-07
-3.40076e-07
9.49125e-06
1.73429e-07
-5.73253e-07
7.78177e-07
-3.32372e-07
9.44106e-06
1.66484e-07
-5.69426e-07
7.7428e-07
-3.21154e-07
9.38731e-06
1.58419e-07
-5.60293e-07
7.63297e-07
-3.07671e-07
9.33077e-06
1.49845e-07
-5.47157e-07
7.46834e-07
-2.92986e-07
9.27226e-06
1.41226e-07
-5.31241e-07
7.2645e-07
-2.77924e-07
9.21254e-06
1.32871e-07
-5.13555e-07
7.03474e-07
-2.63062e-07
9.15228e-06
1.24958e-07
-4.94882e-07
6.78944e-07
-2.48761e-07
9.09207e-06
1.17575e-07
-4.75837e-07
6.53685e-07
-2.35223e-07
9.03241e-06
1.10745e-07
-4.56903e-07
6.28365e-07
-2.22534e-07
8.97367e-06
1.04485e-07
-4.38365e-07
6.03378e-07
-2.10761e-07
8.91617e-06
9.88528e-08
-4.20554e-07
5.79224e-07
-2.00012e-07
8.86015e-06
9.38876e-08
-4.03405e-07
5.55941e-07
-1.9037e-07
8.80578e-06
8.97817e-08
-3.87183e-07
5.33887e-07
-1.82139e-07
8.75335e-06
8.61382e-08
-3.70541e-07
5.11614e-07
-1.74728e-07
8.70258e-06
8.34603e-08
-3.56313e-07
4.9236e-07
-1.68798e-07
8.65551e-06
7.65319e-08
-3.27577e-07
4.54937e-07
-1.56889e-07
8.60527e-06
7.6503e-08
-3.36566e-07
4.63873e-07
-1.53553e-07
-8.14912e-09
-1.28667e-07
1.98705e-07
-2.91294e-08
1.29822e-05
-8.39111e-06
-8.53387e-06
1.06071e-05
7.92135e-06
1.19891e-05
-2.47413e-06
-2.72597e-06
3.72682e-06
2.46634e-06
1.11145e-05
-1.16658e-06
-1.55634e-06
2.2636e-06
1.33397e-06
1.05016e-05
-4.72274e-07
-9.43471e-07
1.42315e-06
6.05523e-07
1.00887e-05
-2.01739e-07
-6.33447e-07
9.71733e-07
2.76306e-07
9.80824e-06
-5.59348e-08
-4.93268e-07
7.48721e-07
8.09385e-08
9.61627e-06
3.54696e-08
-4.29009e-07
6.35223e-07
-4.97098e-08
9.48386e-06
9.41316e-08
-3.99655e-07
5.76399e-07
-1.38466e-07
9.39164e-06
1.34619e-07
-3.90079e-07
5.49389e-07
-2.01703e-07
9.32645e-06
1.6567e-07
-3.93684e-07
5.43322e-07
-2.50127e-07
9.27887e-06
1.90967e-07
-4.06591e-07
5.51964e-07
-2.88758e-07
9.24184e-06
2.118e-07
-4.26238e-07
5.7123e-07
-3.19757e-07
9.21002e-06
2.28381e-07
-4.49676e-07
5.96972e-07
-3.43861e-07
9.17947e-06
2.40309e-07
-4.73335e-07
6.24492e-07
-3.60919e-07
9.14744e-06
2.47317e-07
-4.94094e-07
6.49652e-07
-3.70843e-07
9.11222e-06
2.49564e-07
-5.09907e-07
6.6958e-07
-3.74014e-07
9.07297e-06
2.47614e-07
-5.19803e-07
6.82727e-07
-3.71289e-07
9.02953e-06
2.42281e-07
-5.23678e-07
6.88657e-07
-3.63817e-07
8.9822e-06
2.34474e-07
-5.22051e-07
6.8776e-07
-3.52852e-07
8.93157e-06
2.25049e-07
-5.15755e-07
6.809e-07
-3.39563e-07
8.87836e-06
2.14727e-07
-5.05749e-07
6.69164e-07
-3.24939e-07
8.82335e-06
2.04082e-07
-4.93011e-07
6.53716e-07
-3.09771e-07
8.76724e-06
1.93529e-07
-4.7842e-07
6.35634e-07
-2.94636e-07
8.71068e-06
1.83339e-07
-4.62692e-07
6.15832e-07
-2.79924e-07
8.65423e-06
1.73684e-07
-4.46376e-07
5.95031e-07
-2.65889e-07
8.59834e-06
1.6464e-07
-4.29779e-07
5.73694e-07
-2.52657e-07
8.54337e-06
1.56272e-07
-4.13064e-07
5.52098e-07
-2.40325e-07
8.4896e-06
1.48564e-07
-3.96146e-07
5.30222e-07
-2.28873e-07
8.43726e-06
1.41469e-07
-3.79174e-07
5.08289e-07
-2.18217e-07
8.38645e-06
1.35012e-07
-3.62847e-07
4.86972e-07
-2.08352e-07
8.33735e-06
1.28488e-07
-3.47065e-07
4.66078e-07
-1.98411e-07
8.28965e-06
1.22911e-07
-3.36679e-07
4.51013e-07
-1.89553e-07
8.24509e-06
1.11428e-07
-3.16213e-07
4.23162e-07
-1.73944e-07
8.19763e-06
1.11105e-07
-3.33174e-07
4.40361e-07
-1.70697e-07
6.16086e-09
-1.47511e-07
2.15561e-07
-4.3564e-08
4.87903e-06
7.98389e-06
-2.81786e-06
-5.02954e-06
3.71556e-06
2.00239e-06
-6.56645e-07
-1.02031e-06
3.18014e-06
7.57685e-07
-2.4351e-07
-3.36573e-07
2.93763e-06
3.62201e-07
-8.18871e-08
-1.34677e-07
2.81357e-06
1.67541e-07
-4.69152e-08
-5.55955e-08
2.74392e-06
1.023e-07
-2.64321e-08
-3.08839e-08
2.70373e-06
8.63837e-08
-1.06429e-08
-2.32794e-08
2.6808e-06
8.5715e-08
6.70198e-10
-2.09225e-08
2.66859e-06
9.33996e-08
9.48905e-09
-2.17379e-08
2.66353e-06
1.06206e-07
1.70247e-08
-2.44917e-08
2.66345e-06
1.22126e-07
2.38171e-08
-2.83626e-08
2.66699e-06
1.40082e-07
3.0178e-08
-3.29328e-08
2.67324e-06
1.59104e-07
3.61883e-08
-3.78546e-08
2.68153e-06
1.78179e-07
4.17924e-08
-4.28013e-08
2.69136e-06
1.96307e-07
4.68685e-08
-4.74746e-08
2.70231e-06
2.12641e-07
5.12956e-08
-5.16386e-08
2.714e-06
2.2658e-07
5.4991e-08
-5.51358e-08
2.72609e-06
2.37807e-07
5.79271e-08
-5.78924e-08
2.7383e-06
2.46189e-07
6.01044e-08
-5.98876e-08
2.75037e-06
2.51771e-07
6.15582e-08
-6.1147e-08
2.76212e-06
2.54731e-07
6.23499e-08
-6.17284e-08
2.77339e-06
2.55306e-07
6.25418e-08
-6.17056e-08
2.78407e-06
2.53792e-07
6.22034e-08
-6.11674e-08
2.79411e-06
2.50498e-07
6.14078e-08
-6.02019e-08
2.80345e-06
2.45725e-07
6.02295e-08
-5.88908e-08
2.81211e-06
2.39785e-07
5.87506e-08
-5.73138e-08
2.82012e-06
2.3298e-07
5.70671e-08
-5.55449e-08
2.82753e-06
2.2555e-07
5.52553e-08
-5.36375e-08
2.83443e-06
2.17709e-07
5.3364e-08
-5.16398e-08
2.84091e-06
2.09597e-07
5.14064e-08
-4.96079e-08
2.84701e-06
2.00488e-07
4.9085e-08
-4.73132e-08
2.85268e-06
1.92295e-07
4.68465e-08
-4.54309e-08
2.85781e-06
1.71882e-07
4.10204e-08
-3.98883e-08
2.86123e-06
1.80817e-07
4.31946e-08
-4.36447e-08
-4.22391e-08
-2.38123e-08
2.14926e-08
4.1281e-05