/*--------------------------------*- C++ -*----------------------------------*\
| =========                 |                                                 |
| \\      /  F ield         | OpenFOAM: The Open Source CFD Toolbox           |
|  \\    /   O peration     | Version:  2.4.x                                 |
|   \\  /    A nd           | Web:      www.OpenFOAM.org                      |
|    \\/     M anipulation  |                                                 |
\*---------------------------------------------------------------------------*/
FoamFile
{
    version     2.0;
    format      ascii;
    class       volVectorField;
    location    "9980/coolant";
    object      U;
}
// * * * * * * * * * * * * * * * * * * * * * * * * * * * * * * * * * * * * * //

dimensions      [0 1 -1 0 0 0 0];

internalField   nonuniform List<vector> 
109760
(
(0.00191264 0.00213055 -0.10301)
(0.000871498 0.00101558 -0.107413)
(0.000658628 0.000779497 -0.109772)
(0.000531537 0.000650986 -0.111378)
(0.00043194 0.000543139 -0.112729)
(0.00037337 0.000478939 -0.113869)
(0.0003345 0.000436932 -0.114809)
(0.000303466 0.000403403 -0.115562)
(0.000276767 0.000374627 -0.116132)
(0.000252533 0.000348712 -0.116519)
(0.000229537 0.000324329 -0.116732)
(0.000207265 0.000300916 -0.116792)
(0.000185674 0.000278451 -0.116731)
(0.000164966 0.000257168 -0.116586)
(0.00014544 0.00023735 -0.116393)
(0.000127365 0.000219189 -0.116185)
(0.000110916 0.000202757 -0.115984)
(9.6154e-05 0.000188014 -0.115808)
(8.30295e-05 0.000174831 -0.115667)
(7.14262e-05 0.000163049 -0.115565)
(6.11936e-05 0.000152504 -0.115504)
(5.21674e-05 0.000143038 -0.115485)
(4.41851e-05 0.000134496 -0.115505)
(3.7095e-05 0.000126724 -0.115561)
(3.07673e-05 0.000119578 -0.11565)
(2.50979e-05 0.000112939 -0.115769)
(2.00064e-05 0.0001067 -0.115913)
(1.54127e-05 0.000100811 -0.11608)
(1.12352e-05 9.52215e-05 -0.116266)
(7.39233e-06 8.98927e-05 -0.116467)
(3.68055e-06 8.46496e-05 -0.116682)
(1.5891e-07 7.95312e-05 -0.116908)
(-3.79642e-06 7.30894e-05 -0.117143)
(-8.05355e-06 6.68517e-05 -0.117375)
(-2.12611e-05 2.87675e-05 -0.117644)
(0.00262844 0.00286094 -0.102088)
(0.000976085 0.00130904 -0.105439)
(0.000699495 0.00095761 -0.105794)
(0.000491479 0.000736043 -0.105288)
(0.000354176 0.000568541 -0.104326)
(0.000266419 0.000455369 -0.10306)
(0.000202159 0.000373768 -0.101662)
(0.000151747 0.000311156 -0.10028)
(0.000112009 0.000263217 -0.0990105)
(8.05522e-05 0.000226943 -0.097898)
(5.54036e-05 0.000199748 -0.0969569)
(3.51286e-05 0.000179619 -0.0961839)
(1.85597e-05 0.000164983 -0.0955652)
(4.83855e-06 0.000154576 -0.095084)
(-6.58958e-06 0.000147319 -0.0947231)
(-1.61288e-05 0.000142301 -0.0944661)
(-2.41045e-05 0.000138824 -0.0942984)
(-3.07699e-05 0.000136326 -0.0942068)
(-3.63135e-05 0.000134376 -0.0941796)
(-4.08914e-05 0.000132663 -0.0942063)
(-4.46375e-05 0.000130965 -0.0942782)
(-4.76694e-05 0.00012914 -0.0943874)
(-5.00825e-05 0.000127098 -0.0945272)
(-5.19531e-05 0.000124784 -0.0946918)
(-5.33484e-05 0.000122163 -0.0948763)
(-5.43261e-05 0.000119237 -0.095076)
(-5.49267e-05 0.00011602 -0.0952872)
(-5.51953e-05 0.000112601 -0.0955061)
(-5.51664e-05 0.000109075 -0.0957299)
(-5.48696e-05 0.000105527 -0.0959567)
(-5.43899e-05 0.000101857 -0.0961852)
(-5.37377e-05 9.81822e-05 -0.0964152)
(-5.25637e-05 9.19761e-05 -0.0966457)
(-5.28284e-05 8.89238e-05 -0.0968669)
(-3.87715e-05 3.62012e-05 -0.0971094)
(0.00150872 0.0023046 -0.0778481)
(0.000401976 0.000620549 -0.0645362)
(0.000211801 0.00025706 -0.054568)
(0.000136586 9.65864e-05 -0.0496588)
(9.26731e-05 4.37638e-05 -0.0470695)
(8.19483e-05 1.77302e-05 -0.0455759)
(8.30664e-05 1.68657e-06 -0.0446812)
(8.74169e-05 -8.71444e-06 -0.044141)
(9.35966e-05 -1.60264e-05 -0.0438177)
(0.00010148 -2.16704e-05 -0.0436309)
(0.000110926 -2.63763e-05 -0.0435301)
(0.000121437 -3.03966e-05 -0.0434801)
(0.000132178 -3.37623e-05 -0.0434549)
(0.000142127 -3.63985e-05 -0.0434342)
(0.000150386 -3.82163e-05 -0.0434029)
(0.000156403 -3.91989e-05 -0.0433507)
(0.000159983 -3.94049e-05 -0.0432716)
(0.000161215 -3.89466e-05 -0.0431633)
(0.000160387 -3.79688e-05 -0.0430265)
(0.000157882 -3.66199e-05 -0.0428638)
(0.000154103 -3.50345e-05 -0.0426792)
(0.000149434 -3.3327e-05 -0.042477)
(0.000144207 -3.15852e-05 -0.0422617)
(0.000138684 -2.9871e-05 -0.0420374)
(0.000133061 -2.82264e-05 -0.0418078)
(0.000127464 -2.6675e-05 -0.041576)
(0.00012197 -2.52387e-05 -0.0413446)
(0.000116582 -2.39279e-05 -0.0411158)
(0.000111336 -2.27468e-05 -0.0408918)
(0.000106332 -2.17055e-05 -0.0406745)
(0.000101324 -2.0668e-05 -0.0404646)
(9.76446e-05 -1.97548e-05 -0.0402651)
(8.94204e-05 -1.77031e-05 -0.0400669)
(9.46888e-05 -1.7369e-05 -0.0398984)
(1.73708e-05 3.39829e-06 -0.0396372)
(0.00267571 0.00278657 -0.0945473)
(0.000924056 0.00098803 -0.0915444)
(0.000533659 0.000577515 -0.0860172)
(0.000294837 0.000347543 -0.0814561)
(0.00016797 0.000214929 -0.0780708)
(0.000101411 0.000143231 -0.0756063)
(6.2772e-05 0.000101987 -0.0738131)
(3.83792e-05 7.59779e-05 -0.0725145)
(2.24912e-05 5.92262e-05 -0.071577)
(1.17789e-05 4.84541e-05 -0.0709034)
(4.16097e-06 4.15995e-05 -0.0704279)
(-1.57036e-06 3.74021e-05 -0.0701023)
(-6.07897e-06 3.50378e-05 -0.0698934)
(-9.76941e-06 3.39227e-05 -0.069778)
(-1.2866e-05 3.36256e-05 -0.069738)
(-1.54825e-05 3.38175e-05 -0.0697597)
(-1.76966e-05 3.42585e-05 -0.0698319)
(-1.956e-05 3.47844e-05 -0.0699453)
(-2.11082e-05 3.52755e-05 -0.0700924)
(-2.23685e-05 3.56529e-05 -0.0702667)
(-2.3362e-05 3.58668e-05 -0.0704632)
(-2.41102e-05 3.58968e-05 -0.0706773)
(-2.46378e-05 3.57412e-05 -0.0709055)
(-2.49708e-05 3.54057e-05 -0.0711445)
(-2.51446e-05 3.48943e-05 -0.0713918)
(-2.52048e-05 3.42222e-05 -0.0716452)
(-2.51827e-05 3.33967e-05 -0.0719029)
(-2.50991e-05 3.24669e-05 -0.0721631)
(-2.49267e-05 3.14846e-05 -0.0724243)
(-2.46025e-05 3.04847e-05 -0.0726852)
(-2.41323e-05 2.9437e-05 -0.0729445)
(-2.35405e-05 2.83801e-05 -0.0732019)
(-2.27039e-05 2.58442e-05 -0.0734578)
(-2.34106e-05 2.52968e-05 -0.0737004)
(-1.66681e-05 -5.91963e-06 -0.0739891)
(0.0020753 0.00194953 -0.0762903)
(0.000588595 0.000485518 -0.0623726)
(0.000239678 0.000205229 -0.05269)
(0.000125507 7.48545e-05 -0.0478844)
(6.10217e-05 3.7668e-05 -0.0453537)
(4.02751e-05 1.83958e-05 -0.0438993)
(3.71973e-05 4.35947e-06 -0.0430194)
(3.92538e-05 -5.74224e-06 -0.0424776)
(4.4083e-05 -1.36102e-05 -0.0421502)
(5.06949e-05 -2.03057e-05 -0.0419639)
(5.84235e-05 -2.63255e-05 -0.0418743)
(6.69044e-05 -3.19545e-05 -0.0418544)
(7.57611e-05 -3.72855e-05 -0.0418863)
(8.45681e-05 -4.22826e-05 -0.0419576)
(9.28838e-05 -4.68415e-05 -0.042059)
(0.000100324 -5.08444e-05 -0.0421828)
(0.000106608 -5.41988e-05 -0.0423226)
(0.000111588 -5.68592e-05 -0.0424723)
(0.000115209 -5.88122e-05 -0.042627)
(0.000117501 -6.00815e-05 -0.0427821)
(0.000118559 -6.07184e-05 -0.0429344)
(0.000118507 -6.07826e-05 -0.043081)
(0.000117499 -6.03439e-05 -0.0432199)
(0.00011569 -5.94768e-05 -0.0433498)
(0.000113232 -5.82567e-05 -0.0434701)
(0.000110272 -5.67607e-05 -0.0435806)
(0.000106954 -5.50754e-05 -0.0436815)
(0.000103389 -5.32727e-05 -0.0437735)
(9.96694e-05 -5.14036e-05 -0.0438576)
(9.58766e-05 -4.95022e-05 -0.0439352)
(9.1692e-05 -4.73682e-05 -0.0440069)
(8.79262e-05 -4.53035e-05 -0.0440743)
(7.91413e-05 -4.07454e-05 -0.0441349)
(8.20936e-05 -4.11724e-05 -0.0441909)
(-1.01348e-05 5.87575e-06 -0.0442151)
(0.00272099 0.00273999 -0.102173)
(0.00116785 0.00112181 -0.105584)
(0.000838601 0.000814725 -0.106114)
(0.000618435 0.000605297 -0.105784)
(0.000461999 0.000454906 -0.104991)
(0.000358985 0.000356076 -0.103861)
(0.000283991 0.000283735 -0.102548)
(0.00022532 0.000226551 -0.101205)
(0.000179418 0.000181425 -0.0999384)
(0.000143838 0.000146196 -0.0988068)
(0.000116345 0.000118796 -0.0978348)
(9.51296e-05 9.75239e-05 -0.0970252)
(7.8755e-05 8.09911e-05 -0.0963693)
(6.60604e-05 6.80929e-05 -0.095853)
(5.61522e-05 5.79718e-05 -0.0954604)
(4.83575e-05 4.9955e-05 -0.0951759)
(4.21525e-05 4.35303e-05 -0.0949849)
(3.71381e-05 3.83142e-05 -0.0948743)
(3.30216e-05 3.40085e-05 -0.0948323)
(2.95939e-05 3.03881e-05 -0.0948488)
(2.67045e-05 2.72863e-05 -0.0949148)
(2.42408e-05 2.45816e-05 -0.0950224)
(2.21124e-05 2.21819e-05 -0.0951649)
(2.02463e-05 2.00144e-05 -0.0953366)
(1.85759e-05 1.80195e-05 -0.0955324)
(1.70418e-05 1.61601e-05 -0.095748)
(1.55969e-05 1.44083e-05 -0.0959793)
(1.42039e-05 1.27775e-05 -0.096223)
(1.28478e-05 1.12704e-05 -0.0964762)
(1.15199e-05 9.88004e-06 -0.096737)
(1.00838e-05 8.50772e-06 -0.0970039)
(8.62907e-06 7.13445e-06 -0.0972763)
(6.2119e-06 4.96611e-06 -0.0975528)
(4.043e-06 2.5141e-06 -0.09782)
(-1.50595e-05 -1.58104e-05 -0.0981215)
(0.00113302 0.000233358 -0.102418)
(0.000694264 0.000116655 -0.106484)
(0.000510089 8.77643e-05 -0.109186)
(0.000447897 7.63986e-05 -0.111014)
(0.000383529 6.3658e-05 -0.112614)
(0.000343212 5.62054e-05 -0.114069)
(0.000319565 5.18285e-05 -0.115398)
(0.000302554 4.85687e-05 -0.116642)
(0.000289776 4.60318e-05 -0.117826)
(0.00028022 4.40419e-05 -0.118964)
(0.000272978 4.24272e-05 -0.120067)
(0.000267458 4.10748e-05 -0.121142)
(0.000263259 3.99125e-05 -0.122194)
(0.000260061 3.88888e-05 -0.12323)
(0.000257587 3.79695e-05 -0.12425)
(0.000255606 3.71368e-05 -0.125259)
(0.000253924 3.63862e-05 -0.126256)
(0.00025239 3.57212e-05 -0.127244)
(0.000250888 3.51477e-05 -0.12822)
(0.00024934 3.46696e-05 -0.129185)
(0.000247698 3.42841e-05 -0.130138)
(0.000245938 3.39763e-05 -0.131076)
(0.000244055 3.37148e-05 -0.131997)
(0.000242044 3.34495e-05 -0.132899)
(0.000239894 3.31123e-05 -0.133778)
(0.000237582 3.26233e-05 -0.134631)
(0.000235065 3.18988e-05 -0.135452)
(0.000232283 3.08656e-05 -0.136238)
(0.000229161 2.94667e-05 -0.136983)
(0.000225626 2.76724e-05 -0.137683)
(0.000221479 2.54699e-05 -0.138333)
(0.000216685 2.29017e-05 -0.13893)
(0.000209784 1.99136e-05 -0.139469)
(0.000200266 1.62428e-05 -0.139936)
(0.00013371 7.41706e-06 -0.140389)
(0.00293426 0.00270457 -0.101266)
(0.00142314 0.000940595 -0.103807)
(0.00102364 0.000656139 -0.103018)
(0.000770593 0.000432466 -0.101446)
(0.000580383 0.000294381 -0.0996073)
(0.000454239 0.000208655 -0.0977158)
(0.000367526 0.000147292 -0.0959377)
(0.000305292 0.000100628 -0.0943742)
(0.000261005 6.47659e-05 -0.0930574)
(0.000230075 3.68749e-05 -0.0919775)
(0.000209002 1.48011e-05 -0.0911106)
(0.000195288 -3.0202e-06 -0.0904274)
(0.000187085 -1.77367e-05 -0.0899011)
(0.000182846 -3.01529e-05 -0.0895085)
(0.000181329 -4.07575e-05 -0.0892295)
(0.000181555 -4.98313e-05 -0.0890465)
(0.000182715 -5.75549e-05 -0.0889436)
(0.000184181 -6.40577e-05 -0.0889069)
(0.00018548 -6.94441e-05 -0.0889245)
(0.000186301 -7.3806e-05 -0.0889858)
(0.00018645 -7.7239e-05 -0.0890817)
(0.000185821 -7.98245e-05 -0.0892043)
(0.000184386 -8.16272e-05 -0.0893467)
(0.000182173 -8.27122e-05 -0.0895031)
(0.000179235 -8.31473e-05 -0.0896686)
(0.000175648 -8.30002e-05 -0.0898392)
(0.000171497 -8.23595e-05 -0.0900117)
(0.000166879 -8.13013e-05 -0.0901837)
(0.00016192 -7.98813e-05 -0.0903532)
(0.000156764 -7.81439e-05 -0.090519)
(0.000151314 -7.6039e-05 -0.0906803)
(0.000146059 -7.36781e-05 -0.0908376)
(0.000137205 -6.9955e-05 -0.0909903)
(0.000134783 -6.85536e-05 -0.0911354)
(6.37952e-05 -3.7243e-05 -0.0912921)
(0.00148962 0.0011561 -0.102662)
(0.00081767 0.000553675 -0.106886)
(0.000613422 0.000419626 -0.109518)
(0.000528528 0.000358305 -0.111327)
(0.000448081 0.000295266 -0.112913)
(0.000399823 0.000258812 -0.114348)
(0.000370784 0.000237058 -0.115656)
(0.00034959 0.000220908 -0.116874)
(0.000333456 0.000208379 -0.118026)
(0.000321107 0.000198537 -0.119124)
(0.000311484 0.000190535 -0.120174)
(0.00030389 0.000183802 -0.12118)
(0.000297818 0.000177937 -0.122142)
(0.000292785 0.0001726 -0.123058)
(0.000288293 0.00016748 -0.123924)
(0.000283829 0.000162282 -0.124733)
(0.000278921 0.000156736 -0.12548)
(0.000273194 0.000150626 -0.126158)
(0.000266418 0.000143811 -0.126762)
(0.000258525 0.000136248 -0.127292)
(0.000249599 0.000127984 -0.127751)
(0.000239817 0.000119134 -0.128145)
(0.00022941 0.000109852 -0.128483)
(0.000218623 0.000100308 -0.128777)
(0.000207686 9.06718e-05 -0.129038)
(0.000196786 8.11186e-05 -0.129276)
(0.000186075 7.18043e-05 -0.129502)
(0.000175662 6.28735e-05 -0.129721)
(0.000165608 5.44241e-05 -0.129937)
(0.000155941 4.65029e-05 -0.130155)
(0.000146522 3.9032e-05 -0.130376)
(0.000137426 3.20212e-05 -0.130598)
(0.000127209 2.49162e-05 -0.130823)
(0.000116634 1.69145e-05 -0.131039)
(6.82468e-05 -2.50605e-06 -0.131295)
(0.0030735 0.000917036 -0.0927166)
(0.00100034 0.000346171 -0.08858)
(0.000558386 0.000227047 -0.0815877)
(0.000287283 0.000155009 -0.0765942)
(0.000159878 0.00011332 -0.0731693)
(8.905e-05 9.45014e-05 -0.0708011)
(4.51105e-05 8.66827e-05 -0.0691545)
(1.68126e-05 8.43322e-05 -0.0680033)
(-2.20156e-06 8.5345e-05 -0.0671888)
(-1.53884e-05 8.85515e-05 -0.066606)
(-2.45008e-05 9.31844e-05 -0.0661744)
(-3.05193e-05 9.87649e-05 -0.0658387)
(-3.40298e-05 0.000104671 -0.0655536)
(-3.54571e-05 0.000110145 -0.0652851)
(-3.5218e-05 0.000114587 -0.0650098)
(-3.37307e-05 0.000117627 -0.0647134)
(-3.13989e-05 0.000119142 -0.0643889)
(-2.85857e-05 0.000119209 -0.0640345)
(-2.55898e-05 0.000118021 -0.0636523)
(-2.26281e-05 0.000115824 -0.0632462)
(-1.98456e-05 0.000112879 -0.0628221)
(-1.73245e-05 0.000109431 -0.0623857)
(-1.50973e-05 0.000105676 -0.0619423)
(-1.31683e-05 0.000101762 -0.0614964)
(-1.15195e-05 9.78025e-05 -0.0610522)
(-1.0116e-05 9.38826e-05 -0.0606129)
(-8.93737e-06 9.00554e-05 -0.0601811)
(-7.97804e-06 8.6389e-05 -0.0597588)
(-7.25464e-06 8.28755e-05 -0.0593475)
(-6.81703e-06 7.96009e-05 -0.0589484)
(-6.61174e-06 7.63085e-05 -0.0585613)
(-6.54616e-06 7.3537e-05 -0.0581902)
(-6.1157e-06 6.81435e-05 -0.0578241)
(-4.86486e-06 6.93828e-05 -0.0575109)
(9.10863e-06 3.08246e-05 -0.0570887)
(0.000871309 0.00318345 -0.0933615)
(0.000346924 0.00101913 -0.0896437)
(0.000237053 0.000561553 -0.0829293)
(0.000167172 0.000286446 -0.0780417)
(0.000124133 0.000158115 -0.0746453)
(0.000103919 8.67965e-05 -0.072267)
(9.49253e-05 4.28387e-05 -0.070588)
(9.12423e-05 1.46842e-05 -0.0693956)
(9.08009e-05 -4.08176e-06 -0.0685418)
(9.24679e-05 -1.69699e-05 -0.0679215)
(9.55848e-05 -2.57698e-05 -0.0674601)
(9.97649e-05 -3.14038e-05 -0.0670981)
(0.000104481 -3.45011e-05 -0.0667909)
(0.000109034 -3.5524e-05 -0.0665046)
(0.000112823 -3.49005e-05 -0.0662152)
(0.000115481 -3.30675e-05 -0.0659075)
(0.000116866 -3.04455e-05 -0.0655735)
(0.000117008 -2.74061e-05 -0.0652109)
(0.000116048 -2.42476e-05 -0.0648214)
(0.000114177 -2.11847e-05 -0.0644089)
(0.000111601 -1.83534e-05 -0.0639788)
(0.000108522 -1.58236e-05 -0.0635365)
(0.000105117 -1.36199e-05 -0.0630873)
(0.000101528 -1.17356e-05 -0.0626362)
(9.78625e-05 -1.01514e-05 -0.062187)
(9.41693e-05 -8.84835e-06 -0.061743)
(9.0478e-05 -7.81345e-06 -0.0613068)
(8.67614e-05 -7.03169e-06 -0.0608801)
(8.30467e-05 -6.44253e-06 -0.0604643)
(7.95085e-05 -5.94818e-06 -0.0600604)
(7.61044e-05 -5.34498e-06 -0.0596679)
(7.38409e-05 -4.43214e-06 -0.0592913)
(6.95945e-05 -3.00299e-06 -0.0589204)
(7.22668e-05 -9.11758e-07 -0.0586048)
(3.48234e-05 1.09106e-05 -0.0581841)
(0.0030427 0.00130728 -0.0906699)
(0.000971452 0.000468508 -0.0851149)
(0.000512829 0.000296701 -0.0773429)
(0.000247318 0.000198562 -0.0720656)
(0.000129822 0.000142103 -0.0685996)
(6.77228e-05 0.00011823 -0.0662862)
(3.0219e-05 0.00010939 -0.0647326)
(6.67104e-06 0.000107474 -0.063682)
(-8.7576e-06 0.000109673 -0.062962)
(-1.94406e-05 0.000114696 -0.0624634)
(-2.71483e-05 0.000121727 -0.0621097)
(-3.26694e-05 0.000130099 -0.0618456)
(-3.63494e-05 0.0001389 -0.0616301)
(-3.84304e-05 0.000147118 -0.0614319)
(-3.912e-05 0.000153897 -0.061229)
(-3.8657e-05 0.000158696 -0.0610071)
(-3.73079e-05 0.000161326 -0.0607585)
(-3.53461e-05 0.00016188 -0.0604804)
(-3.30211e-05 0.00016062 -0.0601739)
(-3.05401e-05 0.00015789 -0.0598424)
(-2.80615e-05 0.000154059 -0.0594906)
(-2.56952e-05 0.000149467 -0.0591237)
(-2.35059e-05 0.000144399 -0.0587468)
(-2.1522e-05 0.000139071 -0.0583645)
(-1.97472e-05 0.000133653 -0.0579808)
(-1.81672e-05 0.000128274 -0.0575991)
(-1.67773e-05 0.000123014 -0.0572223)
(-1.55823e-05 0.000117967 -0.0568525)
(-1.46013e-05 0.000113132 -0.0564913)
(-1.38901e-05 0.000108588 -0.0561404)
(-1.33824e-05 0.000103993 -0.0558001)
(-1.30599e-05 0.000100067 -0.0554744)
(-1.21448e-05 9.22249e-05 -0.0551533)
(-1.10764e-05 9.42445e-05 -0.0548812)
(6.19331e-06 3.63474e-05 -0.0544974)
(0.00133263 0.00308237 -0.0910788)
(0.00046927 0.000973029 -0.0860744)
(0.000295935 0.000514795 -0.0787336)
(0.000206188 0.000250556 -0.0736848)
(0.000152633 0.000132428 -0.070313)
(0.000129962 6.88245e-05 -0.0680272)
(0.000121704 3.02307e-05 -0.0664664)
(0.000119511 6.05705e-06 -0.0653941)
(0.000120747 -9.76668e-06 -0.0646503)
(0.000124513 -2.08225e-05 -0.0641292)
(0.000130159 -2.87896e-05 -0.0637564)
(0.000137131 -3.44187e-05 -0.0634767)
(0.000144694 -3.81202e-05 -0.0632485)
(0.000151898 -4.01363e-05 -0.0630404)
(0.000157913 -4.06963e-05 -0.0628296)
(0.000162214 -4.00614e-05 -0.0626011)
(0.000164588 -3.85233e-05 -0.0623465)
(0.000165072 -3.63726e-05 -0.0620629)
(0.000163875 -3.38727e-05 -0.0617509)
(0.000161289 -3.12387e-05 -0.0614139)
(0.00015763 -2.86285e-05 -0.0610566)
(0.000153206 -2.61483e-05 -0.0606843)
(0.000148286 -2.38604e-05 -0.0603022)
(0.000143085 -2.17936e-05 -0.059915)
(0.000137768 -1.99582e-05 -0.0595267)
(0.000132431 -1.8354e-05 -0.0591409)
(0.000127131 -1.6987e-05 -0.0587603)
(0.000121855 -1.58571e-05 -0.0583872)
(0.000116639 -1.49303e-05 -0.0580231)
(0.000111639 -1.41458e-05 -0.0576695)
(0.000106741 -1.3294e-05 -0.0573262)
(0.000103196 -1.22539e-05 -0.0569967)
(9.6468e-05 -1.03534e-05 -0.0566707)
(0.000100098 -8.41185e-06 -0.056391)
(4.27661e-05 7.66774e-06 -0.0560029)
(0.00158558 0.00144224 -0.06441)
(0.000363823 0.000361166 -0.0473291)
(0.00011934 0.000140716 -0.0385011)
(5.9998e-05 4.70914e-05 -0.0347433)
(2.18979e-05 2.5938e-05 -0.0329025)
(1.33431e-05 1.38063e-05 -0.0318862)
(1.53139e-05 4.14377e-06 -0.0312991)
(1.92741e-05 -2.96095e-06 -0.0309603)
(2.4383e-05 -8.61099e-06 -0.0307706)
(3.03017e-05 -1.35296e-05 -0.0306789)
(3.67064e-05 -1.80269e-05 -0.030654)
(4.34386e-05 -2.22824e-05 -0.030677)
(5.02833e-05 -2.63372e-05 -0.0307354)
(5.69687e-05 -3.0145e-05 -0.0308207)
(6.32049e-05 -3.36155e-05 -0.0309263)
(6.87431e-05 -3.66577e-05 -0.0310471)
(7.34096e-05 -3.92057e-05 -0.0311784)
(7.71219e-05 -4.12319e-05 -0.0313162)
(7.98547e-05 -4.27314e-05 -0.0314568)
(8.16387e-05 -4.37252e-05 -0.0315972)
(8.2545e-05 -4.42534e-05 -0.0317348)
(8.26603e-05 -4.43601e-05 -0.0318677)
(8.20878e-05 -4.40952e-05 -0.0319943)
(8.09337e-05 -4.35115e-05 -0.0321138)
(7.93006e-05 -4.26628e-05 -0.0322254)
(7.72942e-05 -4.1606e-05 -0.032329)
(7.50208e-05 -4.04058e-05 -0.0324248)
(7.25626e-05 -3.91139e-05 -0.0325133)
(6.99859e-05 -3.77655e-05 -0.0325954)
(6.73388e-05 -3.63761e-05 -0.0326723)
(6.43339e-05 -3.47686e-05 -0.0327445)
(6.16382e-05 -3.32215e-05 -0.032813)
(5.46699e-05 -2.94619e-05 -0.0328744)
(5.78374e-05 -3.04826e-05 -0.0329325)
(-2.03095e-05 1.10108e-05 -0.0329495)
(0.00276 0.0025573 -0.102212)
(0.00146835 0.000899258 -0.105545)
(0.00113136 0.000667919 -0.105302)
(0.000899159 0.00045305 -0.104251)
(0.000716047 0.000320893 -0.1028)
(0.000589869 0.000231463 -0.101124)
(0.000499614 0.000161724 -0.099423)
(0.000433249 0.000106775 -0.0978387)
(0.000385489 6.3827e-05 -0.0964463)
(0.000352462 3.0178e-05 -0.0952692)
(0.00033094 3.45851e-06 -0.094301)
(0.000318308 -1.81453e-05 -0.0935216)
(0.000312341 -3.5945e-05 -0.0929063)
(0.000311006 -5.08356e-05 -0.0924286)
(0.000312418 -6.33037e-05 -0.0920633)
(0.000314983 -7.35942e-05 -0.0917871)
(0.000317516 -8.18606e-05 -0.0915797)
(0.000319207 -8.82153e-05 -0.0914228)
(0.000319574 -9.27669e-05 -0.0913012)
(0.000318391 -9.56623e-05 -0.0912028)
(0.000315616 -9.70822e-05 -0.0911181)
(0.000311359 -9.72168e-05 -0.0910399)
(0.00030581 -9.62798e-05 -0.0909633)
(0.000299188 -9.44851e-05 -0.0908849)
(0.000291708 -9.20367e-05 -0.090803)
(0.000283575 -8.91182e-05 -0.0907167)
(0.000274965 -8.59044e-05 -0.0906261)
(0.000266024 -8.25393e-05 -0.0905315)
(0.000256893 -7.91356e-05 -0.0904334)
(0.000247735 -7.57715e-05 -0.0903329)
(0.000238356 -7.23742e-05 -0.0902302)
(0.000229611 -6.89504e-05 -0.0901277)
(0.000216269 -6.43336e-05 -0.0900242)
(0.000212988 -6.05037e-05 -0.0899318)
(0.000128886 -2.50207e-05 -0.0898271)
(0.0028929 0.00276143 -0.100635)
(0.00143658 0.000935511 -0.102594)
(0.00102631 0.00064141 -0.100972)
(0.000765655 0.000404692 -0.0987456)
(0.000572516 0.000265717 -0.0964418)
(0.000448234 0.000179169 -0.094251)
(0.000366912 0.000117289 -0.0923045)
(0.000311674 7.13823e-05 -0.0906623)
(0.000274565 3.69574e-05 -0.0893229)
(0.000250405 1.07211e-05 -0.0882544)
(0.000235594 -9.78993e-06 -0.0874169)
(0.000227676 -2.63347e-05 -0.0867731)
(0.000224818 -4.00855e-05 -0.0862898)
(0.000225495 -5.17625e-05 -0.0859392)
(0.000228373 -6.18009e-05 -0.0856976)
(0.00023231 -7.04199e-05 -0.0855448)
(0.000236382 -7.77163e-05 -0.0854631)
(0.000239909 -8.37505e-05 -0.0854372)
(0.000242431 -8.85562e-05 -0.0854537)
(0.000243688 -9.21839e-05 -0.0855011)
(0.000243577 -9.47052e-05 -0.08557)
(0.000242116 -9.61865e-05 -0.0856523)
(0.000239413 -9.67122e-05 -0.0857418)
(0.000235616 -9.63866e-05 -0.0858336)
(0.000230887 -9.5328e-05 -0.085924)
(0.000225398 -9.366e-05 -0.0860105)
(0.000219307 -9.15258e-05 -0.0860917)
(0.000212757 -8.90549e-05 -0.0861666)
(0.000205895 -8.63506e-05 -0.086235)
(0.000198883 -8.34879e-05 -0.0862968)
(0.00019156 -8.03736e-05 -0.0863522)
(0.000184652 -7.70973e-05 -0.0864027)
(0.00017333 -7.21574e-05 -0.0864471)
(0.000171121 -6.92107e-05 -0.0864901)
(8.68768e-05 -3.0057e-05 -0.0865233)
(0.00291762 0.002817 -0.0977486)
(0.00128271 0.000929018 -0.0972649)
(0.000825732 0.000583209 -0.0934989)
(0.000557299 0.000339345 -0.0898035)
(0.000378644 0.0002064 -0.0866879)
(0.000273864 0.000131618 -0.0841765)
(0.000211408 8.29579e-05 -0.082208)
(0.000172176 4.86788e-05 -0.0807009)
(0.00014766 2.36203e-05 -0.079565)
(0.000132893 4.70726e-06 -0.078717)
(0.000124708 -1.0034e-05 -0.0780924)
(0.000121092 -2.19954e-05 -0.0776413)
(0.000120682 -3.19914e-05 -0.0773269)
(0.000122435 -4.05431e-05 -0.0771223)
(0.000125504 -4.79487e-05 -0.0770069)
(0.000129204 -5.43312e-05 -0.0769648)
(0.000133011 -5.97682e-05 -0.0769831)
(0.000136537 -6.43262e-05 -0.0770504)
(0.000139498 -6.80578e-05 -0.0771569)
(0.000141722 -7.10129e-05 -0.0772944)
(0.000143124 -7.32564e-05 -0.0774556)
(0.000143672 -7.48481e-05 -0.0776343)
(0.000143386 -7.58372e-05 -0.0778252)
(0.000142315 -7.62744e-05 -0.078024)
(0.000140524 -7.62141e-05 -0.078227)
(0.000138093 -7.57141e-05 -0.0784311)
(0.000135117 -7.48493e-05 -0.078634)
(0.00013169 -7.36803e-05 -0.0788339)
(0.000127928 -7.2237e-05 -0.0790295)
(0.000123941 -7.05192e-05 -0.0792199)
(0.000119575 -6.8409e-05 -0.0794046)
(0.000115323 -6.6064e-05 -0.0795839)
(0.00010731 -6.20512e-05 -0.0797575)
(0.00010661 -6.14459e-05 -0.0799205)
(3.41443e-05 -2.70815e-05 -0.0801002)
(0.00262321 0.00277797 -0.0932172)
(0.00110395 0.000852977 -0.0893648)
(0.000671191 0.000480497 -0.0828071)
(0.000438396 0.000239498 -0.0777986)
(0.000293162 0.00012813 -0.0742316)
(0.000220041 6.73021e-05 -0.0717187)
(0.000184648 2.82072e-05 -0.0699607)
(0.000167257 1.97075e-06 -0.0687316)
(0.000160468 -1.6484e-05 -0.0678732)
(0.000160693 -3.03602e-05 -0.067276)
(0.000165755 -4.15479e-05 -0.0668669)
(0.000174253 -5.10817e-05 -0.0665951)
(0.000184991 -5.94918e-05 -0.0664258)
(0.00019672 -6.69768e-05 -0.0663333)
(0.000208234 -7.3506e-05 -0.0662969)
(0.000218526 -7.89538e-05 -0.0662998)
(0.000226867 -8.32187e-05 -0.0663277)
(0.000232846 -8.6263e-05 -0.0663689)
(0.00023635 -8.81069e-05 -0.0664138)
(0.00023748 -8.88356e-05 -0.0664554)
(0.000236467 -8.85776e-05 -0.0664888)
(0.000233628 -8.7483e-05 -0.0665108)
(0.000229315 -8.57148e-05 -0.06652)
(0.000223867 -8.34305e-05 -0.0665159)
(0.000217587 -8.07756e-05 -0.0664991)
(0.000210733 -7.78769e-05 -0.0664708)
(0.000203521 -7.48567e-05 -0.0664325)
(0.000196107 -7.18113e-05 -0.0663859)
(0.000188621 -6.8811e-05 -0.0663327)
(0.000181217 -6.59169e-05 -0.0662748)
(0.000173583 -6.29552e-05 -0.066213)
(0.000166809 -6.01144e-05 -0.0661502)
(0.000154502 -5.52794e-05 -0.0660832)
(0.000155626 -5.33115e-05 -0.0660267)
(5.60734e-05 -1.11492e-05 -0.065931)
(0.00128195 0.00144028 -0.0571723)
(0.000293845 0.000236281 -0.0400858)
(0.000105763 5.42301e-05 -0.0324295)
(3.33163e-05 3.09088e-05 -0.0293952)
(1.85691e-05 8.68902e-06 -0.0279383)
(8.18505e-06 8.36582e-06 -0.0271452)
(-1.02544e-07 1.39575e-05 -0.0266947)
(-5.78793e-06 1.90442e-05 -0.0264392)
(-1.01986e-05 2.40786e-05 -0.0263059)
(-1.41123e-05 2.94945e-05 -0.0262527)
(-1.78146e-05 3.52993e-05 -0.0262538)
(-2.14083e-05 4.1416e-05 -0.0262931)
(-2.49313e-05 4.77371e-05 -0.02636)
(-2.82972e-05 5.39688e-05 -0.0264474)
(-3.13649e-05 5.9758e-05 -0.0265496)
(-3.40307e-05 6.48531e-05 -0.026662)
(-3.62251e-05 6.90805e-05 -0.0267807)
(-3.79121e-05 7.23471e-05 -0.0269021)
(-3.90955e-05 7.46455e-05 -0.0270234)
(-3.98033e-05 7.60227e-05 -0.0271421)
(-4.0079e-05 7.65604e-05 -0.0272562)
(-3.99761e-05 7.63626e-05 -0.0273643)
(-3.955e-05 7.55402e-05 -0.0274657)
(-3.885e-05 7.41947e-05 -0.0275598)
(-3.79243e-05 7.24211e-05 -0.0276465)
(-3.68346e-05 7.03347e-05 -0.0277259)
(-3.56363e-05 6.80298e-05 -0.0277981)
(-3.44138e-05 6.56581e-05 -0.0278642)
(-3.32037e-05 6.32996e-05 -0.0279251)
(-3.20092e-05 6.09854e-05 -0.0279821)
(-3.06897e-05 5.84873e-05 -0.0280355)
(-2.93752e-05 5.61443e-05 -0.0280856)
(-2.60545e-05 4.98044e-05 -0.0281279)
(-2.69269e-05 5.22641e-05 -0.028168)
(1.11622e-05 -2.1157e-05 -0.0281665)
(0.00274923 0.00282788 -0.101558)
(0.00113338 0.0011547 -0.104419)
(0.000794561 0.00082541 -0.104235)
(0.000564281 0.000603549 -0.103226)
(0.000406078 0.000445782 -0.101847)
(0.000304363 0.000342281 -0.100278)
(0.000232888 0.00026854 -0.098687)
(0.00017925 0.000212411 -0.0972021)
(0.00013879 0.000169671 -0.0958916)
(0.000108259 0.000137348 -0.0947775)
(8.5031e-05 0.000112921 -0.0938565)
(6.71929e-05 9.44815e-05 -0.0931134)
(5.33769e-05 8.05568e-05 -0.0925285)
(4.25605e-05 7.00175e-05 -0.0920815)
(3.4e-05 6.2004e-05 -0.0917537)
(2.71664e-05 5.58528e-05 -0.0915279)
(2.1656e-05 5.10626e-05 -0.0913893)
(1.71591e-05 4.72572e-05 -0.0913247)
(1.34492e-05 4.41518e-05 -0.0913229)
(1.03644e-05 4.15383e-05 -0.091374)
(7.78661e-06 3.92659e-05 -0.0914696)
(5.62425e-06 3.72306e-05 -0.0916025)
(3.80176e-06 3.53573e-05 -0.0917664)
(2.25645e-06 3.35888e-05 -0.091956)
(9.28123e-07 3.18773e-05 -0.0921666)
(-2.39773e-07 3.01972e-05 -0.0923944)
(-1.28989e-06 2.85299e-05 -0.0926357)
(-2.25666e-06 2.69034e-05 -0.0928872)
(-3.15123e-06 2.53418e-05 -0.0931464)
(-3.97511e-06 2.38543e-05 -0.0934116)
(-4.84779e-06 2.23481e-05 -0.0936814)
(-5.71214e-06 2.08121e-05 -0.0939555)
(-7.2078e-06 1.81556e-05 -0.094233)
(-8.94859e-06 1.57862e-05 -0.0945003)
(-2.08533e-05 -8.74974e-06 -0.0948038)
(0.00207402 0.00191558 -0.0770548)
(0.000595962 0.000471885 -0.0633714)
(0.000231885 0.000208263 -0.053782)
(0.000119911 7.67812e-05 -0.0489737)
(5.82254e-05 3.80623e-05 -0.0464546)
(3.64119e-05 1.88931e-05 -0.0450006)
(3.15249e-05 5.2158e-06 -0.0441132)
(3.20261e-05 -4.59532e-06 -0.0435673)
(3.51968e-05 -1.20752e-05 -0.0432335)
(3.99691e-05 -1.83163e-05 -0.0430411)
(4.56958e-05 -2.38085e-05 -0.0429468)
(5.20805e-05 -2.889e-05 -0.0429237)
(5.88414e-05 -3.36875e-05 -0.0429541)
(6.56572e-05 -3.81965e-05 -0.0430259)
(7.21937e-05 -4.23397e-05 -0.04313)
(7.81622e-05 -4.60255e-05 -0.0432593)
(8.33536e-05 -4.9181e-05 -0.043408)
(8.76513e-05 -5.17713e-05 -0.0435708)
(9.09958e-05 -5.37838e-05 -0.043743)
(9.33858e-05 -5.5232e-05 -0.0439207)
(9.48674e-05 -5.61523e-05 -0.0441006)
(9.55029e-05 -5.65828e-05 -0.0442797)
(9.53727e-05 -5.65653e-05 -0.0444559)
(9.45665e-05 -5.61474e-05 -0.0446271)
(9.31756e-05 -5.53813e-05 -0.0447922)
(9.13036e-05 -5.4329e-05 -0.0449501)
(8.90601e-05 -5.30665e-05 -0.0451006)
(8.65364e-05 -5.16562e-05 -0.0452435)
(8.38078e-05 -5.01335e-05 -0.0453795)
(8.0911e-05 -4.84919e-05 -0.0455091)
(7.7567e-05 -4.65226e-05 -0.0456323)
(7.44027e-05 -4.44904e-05 -0.0457498)
(6.68299e-05 -3.99844e-05 -0.0458585)
(6.9601e-05 -4.06548e-05 -0.0459575)
(-1.23283e-05 6.24279e-06 -0.0460231)
(0.00271592 0.000141483 -0.1022)
(0.00107671 6.33796e-05 -0.105339)
(0.000766045 4.94004e-05 -0.10413)
(0.000515194 3.60438e-05 -0.102294)
(0.000357862 2.77077e-05 -0.1002)
(0.000243732 2.25133e-05 -0.0980902)
(0.000157245 1.91143e-05 -0.0961549)
(9.23426e-05 1.69792e-05 -0.094477)
(4.38702e-05 1.5793e-05 -0.0930671)
(7.86215e-06 1.53205e-05 -0.0918939)
(-1.82799e-05 1.5358e-05 -0.090907)
(-3.59695e-05 1.57144e-05 -0.0900674)
(-4.6545e-05 1.6204e-05 -0.0893234)
(-5.15156e-05 1.66942e-05 -0.0886352)
(-5.22343e-05 1.70826e-05 -0.0879749)
(-4.99426e-05 1.73039e-05 -0.087325)
(-4.57311e-05 1.7334e-05 -0.0866761)
(-4.04911e-05 1.71812e-05 -0.0860244)
(-3.48969e-05 1.68694e-05 -0.0853697)
(-2.94186e-05 1.64328e-05 -0.0847141)
(-2.43514e-05 1.5912e-05 -0.0840604)
(-1.98447e-05 1.53411e-05 -0.0834118)
(-1.59479e-05 1.47459e-05 -0.0827715)
(-1.26596e-05 1.41431e-05 -0.0821421)
(-9.94258e-06 1.35426e-05 -0.0815262)
(-7.73635e-06 1.29444e-05 -0.0809255)
(-5.98254e-06 1.23462e-05 -0.0803415)
(-4.622e-06 1.17769e-05 -0.079775)
(-3.59691e-06 1.12495e-05 -0.0792265)
(-2.84161e-06 1.08619e-05 -0.0786954)
(-2.24835e-06 1.05913e-05 -0.0781799)
(-1.64095e-06 1.05331e-05 -0.0776818)
(-9.83806e-07 1.02824e-05 -0.0771908)
(9.52214e-07 1.05801e-05 -0.0767545)
(1.42755e-05 6.62478e-06 -0.0762369)
(8.89637e-05 0.00271828 -0.102214)
(5.67677e-05 0.0010755 -0.105365)
(5.26341e-05 0.000765039 -0.104165)
(4.39494e-05 0.000514016 -0.10233)
(3.60622e-05 0.000356905 -0.100233)
(3.06356e-05 0.000243075 -0.0981205)
(2.69183e-05 0.000156848 -0.0961818)
(2.42939e-05 9.20962e-05 -0.0945012)
(2.24183e-05 4.36764e-05 -0.0930891)
(2.10732e-05 7.70552e-06 -0.0919143)
(2.01048e-05 -1.83968e-05 -0.0909267)
(1.94827e-05 -3.60661e-05 -0.0900861)
(1.91786e-05 -4.66241e-05 -0.0893413)
(1.90598e-05 -5.1572e-05 -0.0886524)
(1.90322e-05 -5.22603e-05 -0.0879915)
(1.90338e-05 -4.99344e-05 -0.0873412)
(1.90237e-05 -4.56904e-05 -0.086692)
(1.89734e-05 -4.04231e-05 -0.0860401)