/*--------------------------------*- C++ -*----------------------------------*\
| =========                 |                                                 |
| \\      /  F ield         | OpenFOAM: The Open Source CFD Toolbox           |
|  \\    /   O peration     | Version:  2.4.x                                 |
|   \\  /    A nd           | Web:      www.OpenFOAM.org                      |
|    \\/     M anipulation  |                                                 |
\*---------------------------------------------------------------------------*/
FoamFile
{
    version     2.0;
    format      ascii;
    class       volScalarField;
    location    "10000/coolant";
    object      epsilon;
}
// * * * * * * * * * * * * * * * * * * * * * * * * * * * * * * * * * * * * * //

dimensions      [0 2 -3 0 0 0 0];

internalField   nonuniform List<scalar> 
109760
(
0.00655272
0.00200472
0.000781585
0.000364984
0.000195498
0.000116907
7.71188e-05
5.62731e-05
4.60591e-05
4.27838e-05
4.46915e-05
5.0778e-05
6.02372e-05
7.22433e-05
8.59362e-05
0.000100503
0.000115268
0.000129733
0.000143578
0.000156626
0.000168804
0.000180111
0.000190591
0.000200314
0.000209363
0.000217818
0.000225756
0.000233236
0.000240309
0.000247026
0.000253441
0.000259625
0.000265626
0.000271441
0.000276797
0.00656672
0.00200966
0.00080848
0.000426084
0.000300949
0.000275886
0.000294431
0.000330784
0.000371814
0.000411096
0.000446005
0.000475947
0.0005013
0.000522757
0.000541069
0.000556887
0.000570775
0.000583185
0.000594474
0.000604921
0.00061474
0.000624093
0.000633098
0.000641845
0.000650403
0.000658817
0.000667096
0.000675215
0.000683128
0.000690823
0.000698375
0.000705961
0.000713765
0.000721799
0.000729466
0.0133107
0.00674368
0.00469385
0.00396389
0.00365992
0.0035182
0.00345207
0.00342532
0.00342004
0.00342662
0.0034392
0.00345347
0.00346624
0.00347496
0.00347787
0.00347396
0.00346292
0.003445
0.00342092
0.00339163
0.0033582
0.0033217
0.00328312
0.00324332
0.00320304
0.00316291
0.00312344
0.00308496
0.00304762
0.00301131
0.0029757
0.00294066
0.00290632
0.00287532
0.00284765
0.00692878
0.00239524
0.0013968
0.00118455
0.00116638
0.00119222
0.00122318
0.00125029
0.00127283
0.00129192
0.00130869
0.00132405
0.00133865
0.00135293
0.00136718
0.00138163
0.00139638
0.00141152
0.00142709
0.0014431
0.00145955
0.0014764
0.00149362
0.00151119
0.0015291
0.00154733
0.0015658
0.00158429
0.00160253
0.00162039
0.0016381
0.00165635
0.00167601
0.00169722
0.00171874
0.0134165
0.0064513
0.004407
0.00371366
0.00343237
0.00330338
0.00324317
0.00321919
0.00321615
0.00322568
0.00324332
0.00326651
0.00329368
0.00332381
0.00335617
0.00339011
0.00342502
0.00346028
0.00349532
0.00352959
0.00356267
0.00359421
0.00362395
0.00365176
0.00367758
0.00370147
0.00372355
0.00374394
0.00376273
0.0037799
0.00379541
0.00380933
0.00382229
0.00383468
0.00385348
0.00656236
0.00200496
0.000800116
0.000412584
0.000280936
0.000249108
0.000262168
0.000295116
0.00033462
0.000373621
0.000408908
0.000439505
0.000465556
0.000487653
0.000506503
0.000522775
0.000537045
0.000549785
0.000561379
0.000572123
0.000582241
0.000591904
0.000601242
0.000610356
0.000619324
0.000628198
0.000636994
0.000645696
0.000654273
0.000662729
0.00067116
0.000679749
0.000688644
0.000697793
0.000706187
0.00655209
0.00199753
0.000776716
0.000361718
0.000192817
0.000113804
7.26289e-05
4.92683e-05
3.50811e-05
2.59753e-05
1.98586e-05
1.5591e-05
1.25168e-05
1.02414e-05
8.51757e-06
7.18561e-06
6.13924e-06
5.30629e-06
4.6372e-06
4.09788e-06
3.66547e-06
3.32564e-06
3.07092e-06
2.89972e-06
2.81579e-06
2.82787e-06
2.94937e-06
3.19811e-06
3.59579e-06
4.16733e-06
4.93975e-06
5.94095e-06
7.19663e-06
8.72639e-06
1.04943e-05
0.00658151
0.00202554
0.00085051
0.000500207
0.000407552
0.000409494
0.000445767
0.000490622
0.000533415
0.000570561
0.000601523
0.000627098
0.00064839
0.000666404
0.000681956
0.000695677
0.000708035
0.000719374
0.000729941
0.000739905
0.000749381
0.000758442
0.000767129
0.00077547
0.000783485
0.000791191
0.0007986
0.000805713
0.000812514
0.000818994
0.000825181
0.000831168
0.000837153
0.000843331
0.000850032
0.00655225
0.0020021
0.00077939
0.000363331
0.000193803
0.000114435
7.30589e-05
4.95874e-05
3.53502e-05
2.62453e-05
2.01843e-05
1.60421e-05
1.31911e-05
1.12786e-05
1.01152e-05
9.61329e-06
9.74988e-06
1.05401e-05
1.20155e-05
1.42059e-05
1.71242e-05
2.0755e-05
2.50491e-05
2.99238e-05
3.527e-05
4.09634e-05
4.68767e-05
5.28917e-05
5.89082e-05
6.48477e-05
7.06544e-05
7.62958e-05
8.17528e-05
8.7009e-05
9.1945e-05
0.0073399
0.00282848
0.00187917
0.00167836
0.00164789
0.0016546
0.00166829
0.00168217
0.00169471
0.00170506
0.00171241
0.00171587
0.00171449
0.0017077
0.00169542
0.00167801
0.00165615
0.00163069
0.00160254
0.00157255
0.0015415
0.00151001
0.00147858
0.00144759
0.00141732
0.00138801
0.00135989
0.00133313
0.00130782
0.00128381
0.00126062
0.00123741
0.00121346
0.00118835
0.00116522
0.00710116
0.0026426
0.00170933
0.0015217
0.0015033
0.00151855
0.00153703
0.00155263
0.00156496
0.00157449
0.00158081
0.00158327
0.00158119
0.00157412
0.001562
0.00154516
0.00152423
0.00150003
0.0014734
0.00144516
0.00141603
0.00138658
0.00135727
0.00132846
0.00130045
0.00127344
0.00124754
0.00122272
0.00119877
0.00117537
0.00115237
0.00113006
0.00110984
0.00109355
0.00108535
0.00761854
0.00312543
0.00219887
0.00199213
0.00194349
0.0019321
0.00193085
0.00193304
0.00193768
0.00194376
0.00194949
0.0019531
0.00195315
0.0019486
0.00193899
0.00192433
0.00190505
0.00188178
0.00185533
0.0018265
0.00179607
0.00176474
0.00173304
0.00170144
0.00167028
0.00163986
0.00161045
0.00158228
0.00155551
0.00153009
0.00150572
0.00148162
0.00145717
0.00143138
0.0014083
0.00746977
0.00296335
0.00202294
0.00181649
0.00177534
0.00177153
0.00177537
0.0017807
0.00178728
0.00179434
0.00180052
0.00180439
0.00180474
0.00180072
0.00179193
0.00177838
0.00176047
0.00173882
0.00171421
0.00168742
0.00165919
0.00163016
0.00160086
0.00157173
0.00154312
0.00151529
0.00148845
0.00146266
0.00143783
0.00141371
0.00139001
0.0013667
0.00134462
0.00132501
0.00131313
0.0254406
0.0121467
0.0078125
0.00640696
0.00584366
0.00557585
0.0054412
0.00537664
0.00535343
0.00535521
0.00537335
0.00540284
0.00544058
0.0054845
0.00553312
0.0055852
0.00563964
0.00569537
0.00575142
0.0058069
0.00586107
0.00591331
0.00596318
0.00601036
0.00605471
0.00609623
0.00613499
0.0061711
0.00620461
0.00623554
0.00626389
0.00629011
0.00631479
0.0063397
0.00636665
0.00657059
0.0020224
0.000829577
0.000458558
0.000346894
0.00033529
0.000365014
0.000409105
0.000454409
0.000495257
0.000529971
0.000558676
0.000582173
0.000601341
0.00061692
0.000629485
0.000639473
0.00064725
0.000653122
0.000657364
0.000660226
0.000661941
0.000662728
0.000662788
0.000662306
0.000661442
0.000660333
0.000659083
0.000657766
0.000656421
0.000655066
0.000653712
0.000652476
0.000651458
0.00065173
0.0065985
0.00204761
0.000896261
0.000571081
0.000500079
0.000516949
0.000560987
0.000608271
0.000650358
0.000685401
0.000714002
0.000737441
0.000756931
0.000773469
0.000787808
0.000800469
0.0008118
0.000822032
0.000831315
0.000839758
0.000847434
0.0008544
0.000860706
0.000866405
0.000871556
0.000876224
0.000880477
0.000884375
0.000887957
0.000891243
0.000894252
0.000897017
0.000899723
0.000902504
0.000906822
0.00671294
0.00218208
0.00112234
0.000877049
0.000855785
0.000892338
0.000936366
0.000974508
0.00100515
0.00102948
0.00104933
0.00106608
0.00108072
0.00109403
0.00110658
0.00111872
0.00113071
0.00114268
0.00115471
0.00116681
0.00117897
0.00119113
0.00120324
0.00121525
0.00122711
0.00123878
0.00125021
0.00126136
0.00127213
0.00128247
0.00129237
0.00130201
0.00131174
0.00132192
0.0013332
0.00717905
0.00264886
0.00166875
0.00145092
0.00141674
0.00142528
0.00144199
0.001459
0.00147484
0.0014896
0.00150358
0.00151698
0.00152993
0.00154244
0.00155437
0.00156552
0.00157567
0.0015846
0.00159216
0.00159828
0.00160296
0.00160626
0.00160829
0.00160918
0.00160912
0.00160828
0.00160685
0.00160498
0.00160277
0.00160024
0.00159734
0.00159398
0.00159056
0.00158697
0.00158928
0.0308855
0.0133926
0.00858117
0.00715707
0.00659503
0.0063295
0.00619825
0.00614037
0.00612528
0.00613655
0.00616493
0.00620482
0.00625282
0.00630669
0.00636476
0.0064256
0.00648793
0.00655058
0.0066125
0.00667277
0.00673064
0.00678555
0.00683715
0.00688526
0.00692992
0.0069713
0.00700963
0.00704503
0.00707745
0.0071068
0.00713322
0.00715789
0.0071821
0.00720838
0.00723703
0.00657081
0.00201065
0.000822158
0.000454413
0.000343879
0.000331382
0.000358743
0.000399883
0.000442517
0.000481422
0.000514996
0.000543315
0.000567093
0.000587186
0.000604394
0.00061939
0.000632727
0.000644841
0.000656071
0.000666676
0.00067685
0.000686732
0.000696429
0.00070602
0.000715568
0.000725108
0.000734638
0.000744116
0.000753489
0.000762756
0.000772031
0.000781529
0.000791427
0.000801658
0.000810997
0.0127425
0.00616023
0.00424832
0.00360178
0.00334104
0.00322048
0.00316215
0.00313658
0.00313068
0.00313705
0.00315154
0.00317172
0.00319609
0.00322371
0.00325394
0.00328629
0.00332032
0.00335557
0.0033916
0.00342798
0.00346433
0.00350028
0.00353552
0.00356981
0.00360298
0.00363494
0.00366565
0.00369503
0.00372297
0.0037493
0.00377396
0.00379715
0.00381989
0.00384242
0.00387313
0.00658279
0.00204985
0.000882285
0.000542445
0.000464205
0.000480395
0.000527818
0.000579766
0.000625483
0.000661461
0.000686911
0.000702184
0.000708753
0.000708093
0.000701691
0.000690978
0.000677251
0.00066161
0.000644932
0.000627875
0.000610906
0.000594332
0.000578343
0.000563055
0.000548526
0.000534792
0.000521876
0.000509783
0.000498469
0.000487795
0.000477513
0.000467289
0.000456955
0.000446487
0.000437669
0.006583
0.00205021
0.000882673
0.000543005
0.000465024
0.000481353
0.0005287
0.000580424
0.000625867
0.000661581
0.000686833
0.000701958
0.00070842
0.000707681
0.000701216
0.000690455
0.00067669
0.000661019
0.000644316
0.00062724
0.000610253
0.000593667
0.000577678
0.00056241
0.000547923
0.000534241
0.000521335
0.00050912
0.000497473
0.000486273
0.000475544
0.00046555
0.000456954
0.000450312
0.000446868
0.00810516
0.00345653
0.00247238
0.00222473
0.00214906
0.00212316
0.00211635
0.00211823
0.00212391
0.00212987
0.00213415
0.00213504
0.00213073
0.00212001
0.00210247
0.00207834
0.00204842
0.00201379
0.00197562
0.00193508
0.00189321
0.00185081
0.00180854
0.00176697
0.00172657
0.00168764
0.00165032
0.00161444
0.00157952
0.00154498
0.00151069
0.00147783
0.00144951
0.00143047
0.00142397
0.00852362
0.00373704
0.00268402
0.00239373
0.00229357
0.00225545
0.00224357
0.00224429
0.0022509
0.00225861
0.00226506
0.00226789
0.002265
0.00225505
0.00223757
0.00221287
0.00218182
0.00214555
0.00210539
0.00206258
0.00201826
0.0019733
0.00192837
0.00188405
0.00184077
0.00179893
0.0017589
0.00172103
0.00168542
0.00165173
0.00161886
0.00158512
0.00154882
0.00151025
0.00147155
0.00655256
0.00200457
0.000781362
0.000364656
0.00019485
0.000115672
7.49423e-05
5.26622e-05
4.03535e-05
3.41899e-05
3.2402e-05
3.41574e-05
3.90001e-05
4.65446e-05
5.63249e-05
6.77664e-05
8.0244e-05
9.31719e-05
0.000106074
0.000118611
0.000130574
0.000141856
0.000152427
0.000162301
0.000171523
0.000180153
0.000188251
0.000195874
0.000203071
0.000209892
0.000216391
0.000222629
0.000228656
0.000234474
0.000239881
0.0202313
0.00999894
0.00666217
0.00556534
0.0051198
0.00490862
0.00480706
0.00476303
0.00474978
0.00475226
0.0047603
0.00476677
0.0047661
0.00475452
0.00473015
0.00469271
0.00464318
0.0045833
0.00451521
0.00444113
0.00436313
0.00428299
0.00420212
0.00412168
0.00404257
0.00396557
0.00389135
0.00382045
0.00375306
0.00368882
0.00362636
0.00356404
0.00349887
0.00343652
0.00336295
0.00657205
0.00202455
0.000834269
0.000465515
0.000355674
0.000345167
0.000375324
0.000419451
0.0004646
0.000505184
0.000539518
0.000567721
0.000590589
0.000608956
0.00062351
0.000634803
0.000643262
0.000649341
0.000653398
0.00065576
0.000656733
0.000656597
0.000655609
0.000653994
0.000651949
0.000649638
0.000647193
0.000644712
0.000642257
0.000639856
0.000637518
0.000635251
0.000633178
0.000631403
0.000631122
0.0605309
0.0295898
0.0185226
0.0151204
0.0137636
0.0131001
0.0127531
0.0125715
0.0124842
0.0124523
0.0124528
0.0124703
0.0124931
0.0125117
0.0125191
0.0125106
0.0124837
0.0124375
0.012373
0.0122921
0.0121975
0.0120921
0.0119787
0.01186
0.0117383
0.0116156
0.0114936
0.0113737
0.0112569
0.011144
0.0110347
0.0109296
0.0108238
0.0107338
0.0105964
0.0862734
0.0385189
0.0234587
0.0188987
0.0170911
0.0162258
0.0157757
0.0155496
0.0154531
0.0154347
0.0154668
0.0155342
0.0156278
0.0157414
0.0158711
0.0160138
0.0161674
0.0163298
0.0164996
0.0166755
0.0168562
0.0170408
0.0172284
0.0174187
0.0176111
0.0178054
0.0180005
0.0181947
0.0183864
0.018575
0.0187627
0.018955
0.0191575
0.0193599
0.0196071
0.00838928
0.00374247
0.00269366
0.00239181
0.0022818
0.00223472
0.002214
0.00220738
0.00220858
0.00221425
0.00222212
0.00223025
0.0022371
0.00224135
0.00224207
0.00223872
0.00223115
0.00221952
0.00220425
0.00218592
0.00216514
0.00214254
0.0021187
0.00209413
0.00206929
0.00204453
0.00202017
0.00199644
0.00197343
0.00195107
0.00192917
0.00190749
0.00188631
0.00186599
0.00185192
0.00657727
0.00201932
0.000839068
0.000481644
0.000381679
0.000377862
0.000410821
0.000454678
0.000497974
0.000536264
0.000568523
0.00059514
0.000617226
0.000635812
0.000651771
0.000665772
0.000678329
0.000689835
0.000700579
0.000710767
0.000720543
0.000729999
0.000739192
0.000748156
0.000756914
0.000765475
0.000773836
0.000781978
0.000789865
0.000797479
0.000804861
0.000812137
0.000819502
0.000827104
0.00083482
0.00754031
0.00306057
0.00214803
0.00194091
0.00189066
0.00188012
0.00188199
0.00188848
0.0018964
0.00190305
0.00190734
0.00190801
0.00190363
0.00189328
0.00187671
0.00185426
0.00182669
0.00179499
0.00176025
0.00172351
0.00168568
0.00164748
0.00160947
0.00157215
0.00153591
0.00150102
0.00146757
0.00143539
0.00140407
0.00137315
0.00134262
0.00131365
0.00128909
0.00127267
0.00126742
0.0076541
0.00314639
0.00221972
0.0020002
0.00194172
0.00192678
0.00192672
0.0019327
0.00194091
0.00194815
0.00195318
0.00195453
0.00195066
0.00194061
0.00192408
0.00190143
0.00187346
0.00184118
0.00180572
0.00176817
0.00172947
0.00169035
0.00165136
0.00161299
0.00157558
0.00153947
0.00150498
0.00147235
0.00144165
0.00141251
0.00138398
0.00135464
0.00132333
0.00129028
0.00125882
0.00655227
0.00200319
0.000780043
0.000363722
0.000194052
0.000114601
7.31726e-05
4.96646e-05
3.53967e-05
2.62598e-05
2.01576e-05
1.5956e-05
1.30141e-05
1.09617e-05
9.5871e-06
8.77732e-06
8.4844e-06
8.7034e-06
9.45539e-06
1.07724e-05
1.26835e-05
1.52033e-05
1.83237e-05
2.20092e-05
2.61976e-05
3.08049e-05
3.57329e-05
4.0879e-05
4.61453e-05
5.14462e-05
5.67125e-05
6.18956e-05
6.69629e-05
7.1888e-05
7.65934e-05
0.00882397
0.00408259
0.00297992
0.00264609
0.00251971
0.00246339
0.00243652
0.00242528
0.00242277
0.00242551
0.00243111
0.00243764
0.00244334
0.00244672
0.00244673
0.00244273
0.00243444
0.00242194
0.00240559
0.00238592
0.00236354
0.00233911
0.00231323
0.00228647
0.00225929
0.00223211
0.00220527
0.00217907
0.00215376
0.00212947
0.00210621
0.00208369
0.00206163
0.0020392
0.00201931
0.00708174
0.00255733
0.00157496
0.0013671
0.00134383
0.00136024
0.00138149
0.00140054
0.00141692
0.00143147
0.00144498
0.00145801
0.0014709
0.00148383
0.00149684
0.00150987
0.00152279
0.00153541
0.00154754
0.00155903
0.00156974
0.0015796
0.00158856
0.00159661
0.00160379
0.00161017
0.00161586
0.00162093
0.00162545
0.00162943
0.00163286
0.00163571
0.00163825
0.0016406
0.00164636
0.0125381
0.00584195
0.0039795
0.00336288
0.0031268
0.00302904
0.00299051
0.00298147
0.00298895
0.00300628
0.00302975
0.0030574
0.00308791
0.00312067
0.00315539
0.00319183
0.00322985
0.00326924
0.00330982
0.00335139
0.00339372
0.00343658
0.00347975
0.00352304
0.0035663
0.00360938
0.00365209
0.00369407
0.00373487
0.00377418
0.0038122
0.00384993
0.00388925
0.00393049
0.00397887
0.0726083
0.0350929
0.0218503
0.0177851
0.0161429
0.0153283
0.0149009
0.0146791
0.0145724
0.0145321
0.0145282
0.0145405
0.0145535
0.0145555
0.0145386
0.014498
0.0144321
0.0143414
0.0142284
0.0140965
0.0139497
0.013792
0.0136269
0.0134577
0.0132872
0.0131175
0.0129507
0.0127882
0.0126311
0.0124798
0.0123334
0.0121924
0.0120497
0.0119278
0.0117475
0.0646634
0.0309437
0.0190277
0.0154522
0.0140312
0.0133356
0.0129779
0.0127983
0.012718
0.0126948
0.0127032
0.0127247
0.0127458
0.0127559
0.0127477
0.0127171
0.0126627
0.0125851
0.012487
0.0123716
0.0122428
0.0121042
0.0119592
0.0118108
0.0116614
0.0115132
0.0113676
0.0112256
0.0110875
0.0109533
0.0108225
0.0106968
0.0105735
0.0104779
0.0103407
0.00712519
0.00265187
0.00172308
0.00152948
0.00150189
0.00150956
0.00152293
0.00153647
0.00154961
0.00156264
0.00157569
0.00158885
0.00160234
0.00161631
0.00163079
0.00164573
0.00166104
0.00167658
0.00169218
0.00170768
0.0017229
0.00173773
0.00175203
0.00176574
0.00177884
0.00179133
0.00180325
0.00181458
0.00182523
0.00183508
0.00184415
0.00185268
0.00186147
0.00187064
0.00188505
0.00655872
0.0020046
0.000791579
0.000393157
0.00024839
0.000202153
0.00020194
0.00022498
0.000258679
0.000295343
0.000330584
0.00036234
0.000390012
0.000413779
0.000434141
0.000451679
0.000466958
0.000480468
0.000492615
0.00050371
0.000513998
0.000523666
0.000532854
0.000541673
0.000550203
0.000558502
0.000566599
0.000574498
0.000582195
0.000589704
0.000597097
0.000604496
0.000612015
0.000619646
0.000626818
0.00657076
0.00201095
0.000822589
0.000455565
0.000346327
0.000335393
0.000364179
0.000406395
0.000449712
0.000488871
0.000522401
0.000550478
0.000573914
0.000593644
0.000610506
0.000625198
0.000638284
0.000650198
0.000661268
0.000671733
0.000681766
0.000691485
0.000700971
0.000710278
0.000719442
0.000728479
0.000737382
0.000746128
0.000754677
0.000763017
0.000771215
0.000779422
0.00078781
0.000796435
0.000804717
0.00675946
0.00222346
0.00118621
0.000957754
0.000943319
0.00097989
0.00102122
0.00105644
0.00108483
0.00110788
0.00112714
0.00114378
0.00115871
0.00117257
0.00118586
0.00119895
0.00121203
0.00122528
0.00123879
0.00125259
0.00126668
0.00128103
0.0012956
0.00131035
0.00132523
0.00134019
0.00135516
0.00136999
0.00138455
0.00139872
0.00141261
0.00142658
0.00144118
0.00145673
0.00147204
0.00656023
0.002015
0.000801194
0.000403575
0.000261509
0.000219282
0.000223387
0.00025011
0.000286366
0.00032449
0.000360367
0.000392193
0.000419542
0.000442659
0.000462031
0.000478161
0.000491499
0.000502439
0.000511312
0.000518417
0.00052401
0.000528322
0.000531566
0.000533941
0.00053563
0.000536798
0.000537585
0.000538107
0.000538452
0.000538677
0.000538823
0.000538924
0.000539066
0.000539354
0.000540362
0.00668448
0.00218056
0.00111907
0.000875241
0.000861577
0.00090772
0.000960222
0.0010044
0.00103799
0.00106182
0.00107655
0.00108356
0.00108377
0.00107794
0.0010669
0.0010516
0.00103306
0.00101222
0.000989953
0.000966962
0.000943789
0.000920837
0.000898388
0.000876636
0.000855713
0.000835723
0.000816742
0.000798856
0.000782067
0.000766204
0.000750864
0.000735416
0.000719421
0.000702619
0.000687734
0.00669059
0.00218902
0.00113531
0.000894648
0.000879732
0.000922493
0.000971645
0.00101328
0.00104511
0.0010678
0.00108213
0.00108891
0.00108901
0.00108311
0.001072
0.00105662
0.00103797
0.00101701
0.000994603
0.000971459
0.000948127
0.000925002
0.000902403
0.000880539
0.000859564
0.00083956
0.000820524
0.000802354
0.000784856
0.000767837
0.000751327
0.0007358
0.000722493
0.000712562
0.000708286
0.00655244
0.00200488
0.000781232
0.000364465
0.000194497
0.000114921
7.34983e-05
5.01152e-05
3.61181e-05
2.74582e-05
2.21386e-05
1.91652e-05
1.80736e-05
1.86854e-05
2.09577e-05
2.48745e-05
3.03684e-05
3.72804e-05
4.53575e-05
5.42824e-05
6.37185e-05
7.33542e-05
8.29327e-05
9.22656e-05
0.000101236
0.000109778
0.000117862
0.000125488
0.000132673
0.000139441
0.000145825
0.000151864
0.000157598
0.000163049
0.00016814
0.00655438
0.00200457
0.000782952
0.000370993
0.00020861
0.000140252
0.000114699
0.00011238
0.000124171
0.000144516
0.000169349
0.00019565
0.0002214
0.000245451
0.000267316
0.000286893
0.000304313
0.000319814
0.000333634
0.000346067
0.000357353
0.000367694
0.00037726
0.000386191
0.000394605
0.000402594
0.000410224
0.000417534
0.000424555
0.000431323
0.000437906
0.000444397
0.00045087
0.000457314
0.000463278
0.00659908
0.00206763
0.000916768
0.000596141
0.000534527
0.000561636
0.0006135
0.000665332
0.000709266
0.000744239
0.000771289
0.000791809
0.000806937
0.000817514
0.000824174
0.000827417
0.000827702
0.000825491
0.00082125
0.000815438
0.00080848
0.000800751
0.000792568
0.000784184
0.000775796
0.000767551
0.00075956
0.000751901
0.000744629
0.000737767
0.000731308
0.000725177
0.000719356
0.000713572
0.000709267
0.00677538
0.00227138
0.00123463
0.0010072
0.000998995
0.0010426
0.00108901
0.0011264
0.00115423
0.00117479
0.00118976
0.00120018
0.00120638
0.0012088
0.00120768
0.00120324
0.00119583
0.0011859
0.00117394
0.00116046
0.00114593
0.00113077
0.00111531
0.00109984
0.00108457
0.00106967
0.00105527
0.00104143
0.00102816
0.00101538
0.00100298
0.000990833
0.000979173
0.000968079
0.000961088
0.00920767
0.00411627
0.0028821
0.00249965
0.00235379
0.00229293
0.00227013
0.00226702
0.00227466
0.0022882
0.00230506
0.00232373
0.00234325
0.00236291
0.00238204
0.00240001
0.00241628
0.00243039
0.00244206
0.00245115
0.00245767
0.00246173
0.00246356
0.00246342
0.00246163
0.00245851
0.00245439
0.00244954
0.00244415
0.00243823
0.00243169
0.0024244
0.00241685
0.00240928
0.00240868
0.00663567
0.00209501
0.000986535
0.000701537
0.000659631
0.000691718
0.000740041
0.000785469
0.000823259
0.000853461
0.000877649
0.000897442
0.000914147
0.000928725
0.000941803
0.000953819
0.000965054
0.000975668
0.000985748
0.000995338
0.00100446
0.00101311
0.00102131
0.00102907
0.0010364
0.00104336
0.00104996
0.00105622
0.0010621
0.00106757
0.00107266
0.00107752
0.00108251
0.00108786
0.00109463
0.00655287
0.0020083
0.000783239
0.000366033
0.000196443
0.00011804
7.86887e-05
5.85359e-05
4.92712e-05
4.71768e-05
5.04478e-05
5.80253e-05
6.90586e-05
8.26842e-05
9.79936e-05
0.000114105
0.000130265
0.000145912
0.000160692
0.000174427
0.000187061
0.000198622
0.000209179
0.000218821
0.000227641
0.00023573
0.000243168
0.000250039
0.000256392
0.000262282
0.000267762
0.000272906
0.000277787
0.000282462
0.000286855
0.0065543
0.00201122
0.000786797
0.000371944
0.000206841
0.000135515
0.000106416
0.000100025
0.000107659
0.000124363
0.000146521
0.000171239
0.000196327
0.000220317
0.000242375
0.000262158
0.000279599
0.000294789
0.000307894
0.000319084
0.000328569
0.000336578
0.000343316
0.000348974
0.000353724
0.000357727
0.00036113
0.000364058
0.000366612
0.000368876
0.00037092
0.000372812
0.000374632
0.000376479
0.00037852
0.00685449
0.0023632
0.00135399
0.00114328
0.00113944
0.00117979
0.0012204
0.00125243
0.00127646
0.00129446
0.00130786
0.0013175
0.00132358
0.00132612
0.00132519
0.00132095
0.00131367
0.00130372
0.00129158
0.00127771
0.0012626
0.00124669
0.00123033
0.00121383
0.00119744
0.00118134
0.0011657
0.00115063
0.00113624
0.00112256
0.00110955
0.001097
0.00108483
0.00107227
0.0010625
0.00693767
0.00241419
0.00142421
0.00122013
0.00120714
0.00123416
0.00126373
0.00128872
0.00130941
0.00132703
0.00134276
0.00135735
0.00137125
0.00138481
0.0013984
0.00141228
0.00142655
0.00144126
0.00145642
0.00147197
0.00148786
0.00150398
0.00152025
0.00153658
0.00155289
0.00156911
0.00158518
0.00160095
0.00161629
0.00163106
0.00164529
0.00165929
0.00167365
0.00168889
0.00170542
0.00716357
0.00268679
0.00173634
0.00153885
0.00151448
0.00152611
0.00154206
0.00155539
0.00156691
0.00157724
0.0015865
0.00159441
0.00160048
0.0016042
0.00160516
0.00160315
0.00159814
0.00159031
0.00158
0.00156761
0.00155358
0.00153835
0.00152231
0.00150582
0.00148917
0.00147261
0.00145635
0.00144053
0.0014252
0.00141033
0.00139576
0.00138133
0.00136726
0.00135372
0.00134501
0.0082721
0.00345137
0.00236772
0.00207707
0.00198529
0.00195481
0.00194778
0.00195157
0.00196118
0.0019743
0.00198976
0.00200694
0.0020255
0.00204527
0.00206614
0.00208809
0.0021111
0.00213508
0.00216001
0.00218578
0.00221232
0.00223951
0.00226727
0.00229555
0.00232434
0.00235358
0.00238312
0.00241261
0.00244161
0.00246994
0.00249808
0.00252728
0.00255908
0.00259363
0.00262942
0.00655339
0.00201898
0.000790339
0.000370047
0.000198032
0.000117372
7.54506e-05
5.19696e-05
3.82135e-05
3.01403e-05
2.57931e-05
2.42184e-05
2.49541e-05
2.77483e-05
3.23901e-05
3.86156e-05
4.60779e-05
5.43661e-05
6.30518e-05
7.17494e-05
8.0146e-05
8.80238e-05
9.52592e-05
0.000101806
0.000107675
0.000112915
0.000117592
0.000121784
0.000125567
0.000129009
0.000132171
0.000135105
0.000137861
0.000140459
0.000143041
0.00657565
0.00201432
0.000835232
0.000479625
0.000382365
0.000381579
0.000416963
0.000462184
0.00050598
0.000544402
0.000576784
0.000603764
0.000626319
0.000645414
0.000661865
0.000676311
0.000689287
0.000701204
0.000712373
0.000723031
0.000733349
0.000743451
0.000753429
0.000763353
0.000773275
0.000783222
0.00079318
0.000803091
0.000812889
0.000822566
0.000832242
0.000842161
0.00085252
0.000863243
0.000873014
0.0674525
0.03082
0.0188344
0.0153181
0.0139168
0.0132323
0.0128831
0.0127133
0.0126459
0.0126376
0.0126644
0.0127109
0.0127661
0.0128211
0.0128689
0.012904
0.0129231
0.0129244
0.0129076
0.0128739
0.012825
0.0127634
0.0126914
0.0126117
0.0125265
0.0124379
0.0123477
0.0122572
0.0121672
0.0120781
0.0119896
0.0119034
0.0118166
0.0117504
0.011641
0.00655768
0.00200434
0.000789252
0.00038754
0.000238671
0.000187539
0.00018205
0.000200158
0.000229867
0.000263721
0.000297252
0.000328149
0.000355551
0.000379401
0.000400015
0.00041788
0.000433489
0.000447289
0.000459659
0.000470904
0.000481265
0.00049093
0.000500038
0.0005087
0.000516997
0.000524988
0.000532707
0.00054016
0.000547358
0.000554324
0.000561115
0.000567834
0.000574574
0.000581361
0.000587709
0.00655233
0.00200376
0.000780689
0.000364191
0.000194367
0.000114816
7.33226e-05
4.97674e-05
3.54591e-05
2.62799e-05
2.01248e-05
1.58489e-05
1.27973e-05
1.05808e-05
8.96286e-06
7.79921e-06
7.00526e-06
6.53701e-06
6.37963e-06
6.53959e-06
7.03848e-06
7.90728e-06
9.1808e-06
1.08922e-05
1.30675e-05
1.57212e-05
1.88515e-05
2.24371e-05
2.64376e-05
3.07952e-05
3.54394e-05
4.02943e-05
4.52828e-05
5.03276e-05
5.53202e-05
0.00684481
0.0023169
0.00131024
0.00109859
0.00108697
0.00111955
0.00115529
0.00118542
0.00120971
0.00122969
0.0012468
0.00126211
0.00127639
0.00129015
0.00130376
0.00131747
0.00133145
0.00134578
0.00136054
0.00137574
0.00139138
0.00140743
0.00142387
0.00144069
0.00145786
0.00147538
0.00149312
0.00151091
0.0015285
0.0015458
0.00156306
0.00158096
0.00160025
0.00162105
0.00164115
0.00656272
0.00200878
0.000801965
0.000412358
0.0002786
0.000244387
0.000254911
0.000285523
0.000323085
0.000360667
0.000394979
0.00042499
0.000450694
0.000472605
0.00049136
0.000507573
0.000521774
0.000534396
0.000545779
0.000556181
0.000565803
0.000574785
0.000583229
0.00059121
0.000598784
0.000605997
0.00061288
0.000619451
0.000625715
0.000631685
0.000637401
0.000642954
0.000648481
0.000654098
0.000659812
0.0241488
0.0121336
0.00789778
0.00648195
0.0059085
0.00563523
0.00550144
0.00544023
0.00541926
0.00542109
0.00543543
0.0054552
0.00547513
0.00549104
0.00549986
0.00549964
0.00548945
0.00546932
0.00543998
0.00540264
0.00535874
0.00530978
0.0052572
0.0052023
0.00514621
0.00508989
0.00503409
0.00497935
0.00492593
0.00487382
0.00482273
0.004773
0.00472405
0.00468305
0.0046342
0.073888
0.0346882
0.0212152
0.0169869
0.0153036
0.0144969
0.0140748
0.0138593
0.0137639
0.0137416
0.0137664
0.0138236
0.0139042
0.0140028
0.0141157
0.0142403
0.0143748
0.0145175
0.0146671
0.0148223
0.014982
0.0151455
0.0153118
0.0154804
0.0156509
0.0158226
0.0159945
0.0161652
0.0163335
0.0164995
0.0166653
0.0168352
0.0170131
0.0171895
0.0173975
0.00655883
0.00200635
0.000791275
0.000389775
0.000241583
0.000191588
0.0001874
0.000206634
0.000237127
0.00027143
0.000305251
0.000336368
0.000363946
0.000387938
0.000408673
0.00042661
0.000442223
0.000455946
0.000468156
0.00047917
0.000489241
0.000498569
0.000507308
0.000515578
0.000523472
0.000531056
0.000538368
0.000545416
0.000552192
0.000558705
0.000565017
0.000571252
0.000577541
0.000583907
0.000590001
0.00655553
0.0020301
0.000797039
0.000375521
0.00020458
0.000127229
9.11919e-05
7.67101e-05
7.53721e-05
8.27543e-05
9.56341e-05
0.000111187
0.000127036
0.000141487
0.000153599
0.000163057
0.000169963
0.000174637
0.000177476
0.000178877
0.000179193
0.00017872
0.000177697
0.000176311
0.000174706
0.000172989
0.000171237
0.000169506
0.000167828
0.000166221
0.000164688
0.000163235
0.000161893
0.000160698
0.000159899
0.00655275
0.00201092
0.000785116
0.000366864
0.000196045
0.000116031
7.44321e-05
5.10635e-05
3.72555e-05
2.89757e-05
2.42623e-05
2.21606e-05
2.22319e-05
2.4287e-05
2.82172e-05
3.38809e-05
4.10403e-05
4.93508e-05
5.83807e-05
6.77127e-05
7.70048e-05
8.59644e-05
9.44071e-05
0.000102242
0.000109449
0.000116051
0.000122098
0.000127649
0.000132766
0.000137507
0.000141927
0.000146076
0.000150004
0.000153747
0.000157344
0.00725729
0.00266454
0.00167403
0.00146171
0.00143221
0.00144322
0.00146109
0.00147874
0.00149537
0.00151131
0.00152687
0.00154223
0.00155761
0.0015732
0.00158916
0.00160564
0.00162273
0.00164044
0.00165876
0.00167764
0.00169702
0.00171683
0.00173698
0.00175738
0.00177798
0.00179869
0.00181939
0.0018399
0.00185998
0.00187949
0.00189859
0.00191782
0.00193803
0.00195963
0.00198198
0.00716767
0.00266701
0.00171591
0.00151714
0.0014889
0.00149618
0.00150854
0.00152004
0.00153106
0.00154196
0.00155323
0.0015651
0.00157763
0.00159087
0.00160483
0.0016195
0.00163482
0.00165066
0.0016669
0.00168336
0.00169989
0.00171633
0.00173255
0.00174841
0.00176385
0.00177881
0.00179326
0.00180717
0.00182045
0.00183302
0.00184483
0.00185598
0.00186703
0.00187817
0.001894
0.00655298
0.00200825
0.000783635
0.000366386
0.000196804
0.000118553
7.9556e-05
6.00635e-05
5.19091e-05
5.15136e-05
5.70971e-05
6.74346e-05
8.13365e-05
9.75431e-05
0.00011485
0.000132262
0.000149083
0.000164894
0.000179496
0.000192843
0.000204976
0.000215984
0.000225971
0.000235043
0.000243302
0.000250846
0.00025776
0.000264115
0.00026997
0.000275379
0.000280404
0.000285124
0.000289619
0.000293949
0.000297997
0.00821763