/*--------------------------------*- C++ -*----------------------------------*\
| =========                 |                                                 |
| \\      /  F ield         | OpenFOAM: The Open Source CFD Toolbox           |
|  \\    /   O peration     | Version:  2.4.x                                 |
|   \\  /    A nd           | Web:      www.OpenFOAM.org                      |
|    \\/     M anipulation  |                                                 |
\*---------------------------------------------------------------------------*/
FoamFile
{
    version     2.0;
    format      ascii;
    class       volScalarField;
    location    "10000/coolant";
    object      k;
}
// * * * * * * * * * * * * * * * * * * * * * * * * * * * * * * * * * * * * * //

dimensions      [0 2 -2 0 0 0 0];

internalField   nonuniform List<scalar> 
109760
(
0.000349476
0.000160207
8.82842e-05
5.54283e-05
3.83181e-05
2.863e-05
2.29878e-05
1.99223e-05
1.87923e-05
1.93275e-05
2.13937e-05
2.4859e-05
2.95289e-05
3.51395e-05
4.13912e-05
4.79959e-05
5.47125e-05
6.1361e-05
6.78193e-05
7.40127e-05
7.99024e-05
8.54748e-05
9.07333e-05
9.56928e-05
0.000100374
0.000104802
0.000109
0.000112991
0.000116788
0.0001204
0.000123838
0.000127121
0.000130289
0.000133385
0.000136394
0.000350352
0.000161269
9.26173e-05
6.6123e-05
5.85937e-05
6.11358e-05
6.9049e-05
7.94103e-05
9.0436e-05
0.000101134
0.00011103
0.000119968
0.000127962
0.000135093
0.000141467
0.00014719
0.000152361
0.000157066
0.000161381
0.00016537
0.000169084
0.000172567
0.000175852
0.000178967
0.000181936
0.000184783
0.000187529
0.000190181
0.000192727
0.000195144
0.000197421
0.000199594
0.000201769
0.000204067
0.00020658
0.000405319
0.000235778
0.000189728
0.000175078
0.000170367
0.000169525
0.000170372
0.000171956
0.000173808
0.000175698
0.000177488
0.000179067
0.00018035
0.000181272
0.000181794
0.000181907
0.000181625
0.000180985
0.000180036
0.000178836
0.000177441
0.000175906
0.000174276
0.000172591
0.000170885
0.000169186
0.000167518
0.0001659
0.000164342
0.000162835
0.000161355
0.000159855
0.000158339
0.000156766
0.000155671
0.000354612
0.000175254
0.000129069
0.000122935
0.00012865
0.000137125
0.000145527
0.000153059
0.000159619
0.000165317
0.000170309
0.000174735
0.000178712
0.000182337
0.000185685
0.000188816
0.000191777
0.000194604
0.000197328
0.000199972
0.000202554
0.000205086
0.000207572
0.000210021
0.000212444
0.000214855
0.000217265
0.00021966
0.000221995
0.000224211
0.000226288
0.000228304
0.000230469
0.000233004
0.000236045
0.000392034
0.00021823
0.000172921
0.000159345
0.000155329
0.000154844
0.000155817
0.000157416
0.000159291
0.000161269
0.000163272
0.000165263
0.000167229
0.000169163
0.000171066
0.000172933
0.000174756
0.000176526
0.00017823
0.000179856
0.000181396
0.000182842
0.000184189
0.000185437
0.000186588
0.000187648
0.000188628
0.000189538
0.000190384
0.000191166
0.000191877
0.000192497
0.000193061
0.000193506
0.000194459
0.000350011
0.000160683
9.13643e-05
6.37928e-05
5.48688e-05
5.60256e-05
6.28727e-05
7.25916e-05
8.33347e-05
9.39897e-05
0.000103982
0.000113084
0.00012126
0.00012857
0.000135112
0.000140992
0.000146309
0.000151155
0.000155608
0.000159735
0.00016359
0.000167217
0.000170652
0.000173925
0.000177064
0.000180095
0.000183036
0.000185893
0.000188653
0.000191293
0.000193813
0.00019626
0.000198747
0.000201399
0.000204195
0.000349434
0.00015975
8.78443e-05
5.49888e-05
3.77625e-05
2.7735e-05
2.14136e-05
1.71737e-05
1.41866e-05
1.19971e-05
1.03393e-05
9.05008e-06
8.02473e-06
7.19384e-06
6.51003e-06
5.94029e-06
5.46143e-06
5.05725e-06
4.71693e-06
4.434e-06
4.20584e-06
4.03352e-06
3.92174e-06
3.87898e-06
3.9177e-06
4.05446e-06
4.30993e-06
4.70864e-06
5.27835e-06
6.04909e-06
7.05145e-06
8.31467e-06
9.86291e-06
1.17112e-05
1.38197e-05
0.000350881
0.000162609
9.7272e-05
7.55189e-05
7.28717e-05
7.91505e-05
8.91332e-05
0.000100065
0.000110621
0.000120264
0.000128846
0.000136421
0.000143113
0.000149057
0.000154373
0.000159167
0.000163523
0.00016751
0.000171182
0.000174583
0.000177744
0.000180691
0.000183443
0.000186018
0.000188432
0.000190701
0.000192841
0.000194866
0.000196781
0.000198582
0.000200262
0.000201824
0.000203317
0.000204804
0.000206527
0.000349444
0.000160035
8.80752e-05
5.5172e-05
3.7905e-05
2.78485e-05
2.15097e-05
1.72641e-05
1.42862e-05
1.21271e-05
1.05323e-05
9.35611e-06
8.51957e-06
7.98861e-06
7.76142e-06
7.85984e-06
8.32153e-06
9.19141e-06
1.0512e-05
1.23136e-05
1.46059e-05
1.73729e-05
2.05715e-05
2.41356e-05
2.79843e-05
3.20318e-05
3.61958e-05
4.04054e-05
4.4604e-05
4.87498e-05
5.28132e-05
5.67766e-05
6.06306e-05
6.43706e-05
6.79466e-05
0.000358584
0.000187145
0.000148213
0.000144791
0.000150203
0.000157225
0.000163962
0.000169949
0.000175098
0.000179405
0.00018285
0.000185417
0.000187087
0.000187875
0.000187837
0.000187069
0.000185689
0.000183823
0.000181594
0.000179109
0.000176465
0.000173738
0.000170982
0.00016824
0.000165539
0.000162903
0.000160358
0.000157935
0.000155671
0.000153583
0.000151643
0.000149723
0.000147636
0.000145064
0.000142228
0.000356567
0.000183631
0.000143666
0.000140213
0.000146098
0.000153602
0.000160651
0.000166775
0.000171946
0.00017624
0.000179665
0.000182208
0.000183861
0.000184639
0.000184598
0.00018383
0.00018245
0.000180587
0.000178364
0.000175895
0.000173271
0.000170566
0.000167837
0.000165127
0.000162471
0.0001599
0.000157438
0.000155094
0.000152846
0.000150632
0.000148362
0.000145975
0.000143581
0.000141446
0.000140486
0.000358756
0.000193422
0.000159184
0.000157149
0.000162086
0.000168008
0.000173515
0.00017831
0.000182486
0.000186088
0.000189083
0.00019141
0.000193024
0.000193904
0.000194075
0.000193597
0.000192553
0.000191043
0.000189168
0.000187024
0.000184697
0.00018226
0.000179768
0.000177265
0.000174781
0.000172342
0.000169973
0.000167703
0.000165562
0.000163572
0.000161723
0.000159925
0.000158058
0.000155815
0.00015356
0.000358226
0.000189506
0.000152847
0.000149911
0.000154915
0.000161222
0.000167081
0.000172157
0.000176559
0.000180337
0.00018347
0.000185915
0.000187634
0.000188615
0.000188882
0.00018849
0.000187524
0.000186085
0.000184278
0.000182201
0.000179943
0.000177575
0.000175154
0.000172725
0.000170325
0.000167982
0.000165724
0.000163565
0.000161504
0.000159503
0.000157499
0.000155417
0.000153289
0.000151184
0.000149915
0.000486599
0.000280434
0.000212152
0.00018853
0.000179334
0.000175562
0.000174237
0.000174134
0.000174708
0.00017567
0.000176864
0.000178207
0.000179648
0.000181157
0.000182713
0.000184299
0.000185897
0.000187489
0.000189057
0.000190585
0.000192059
0.000193467
0.0001948
0.000196055
0.000197228
0.000198324
0.000199347
0.000200304
0.000201198
0.000202028
0.000202786
0.000203465
0.00020409
0.000204652
0.000205475
0.000350338
0.000162002
9.45676e-05
6.98429e-05
6.43494e-05
6.87325e-05
7.79647e-05
8.90371e-05
0.000100232
0.000110702
0.000120121
0.000128433
0.000135703
0.000142028
0.000147502
0.000152209
0.000156218
0.000159596
0.000162409
0.000164721
0.000166598
0.0001681
0.000169291
0.000170226
0.000170959
0.000171536
0.000171999
0.000172383
0.000172716
0.000173012
0.000173275
0.000173489
0.00017366
0.000173773
0.000174114
0.000351184
0.000163816
0.000101172
8.25773e-05
8.25541e-05
9.04346e-05
0.000101051
0.000111941
0.000122063
0.000131094
0.000139025
0.000145972
0.000152076
0.000157471
0.000162272
0.000166565
0.000170419
0.000173883
0.000176997
0.000179795
0.000182304
0.000184552
0.000186563
0.000188361
0.000189973
0.000191424
0.00019274
0.000193947
0.000195063
0.000196097
0.000197048
0.000197906
0.000198694
0.000199414
0.000200433
0.00035378
0.000170848
0.000118419
0.000109379
0.000115232
0.000125223
0.00013545
0.000144698
0.000152754
0.000159696
0.000165714
0.000170977
0.000175631
0.000179801
0.000183588
0.000187073
0.000190318
0.000193368
0.000196257
0.000199006
0.000201632
0.000204144
0.000206547
0.000208847
0.000211049
0.00021316
0.00021519
0.000217141
0.000219007
0.00022077
0.000222413
0.000223938
0.000225412
0.000226924
0.000228801
0.000356102
0.00018127
0.000138739
0.000133145
0.000137677
0.000144423
0.000151156
0.000157276
0.00016268
0.000167425
0.000171605
0.000175302
0.000178589
0.000181518
0.000184118
0.000186407
0.000188396
0.000190092
0.00019151
0.000192666
0.000193582
0.000194285
0.000194802
0.000195162
0.000195394
0.000195525
0.000195583
0.000195594
0.000195575
0.000195532
0.000195453
0.000195298
0.000195079
0.000194706
0.000194946
0.000462826
0.000247829
0.000185878
0.000166339
0.000159076
0.000156244
0.000155372
0.000155515
0.000156215
0.000157232
0.000158433
0.000159739
0.000161108
0.000162516
0.000163945
0.000165377
0.000166798
0.000168191
0.000169542
0.000170839
0.000172071
0.00017323
0.000174313
0.000175318
0.000176246
0.000177105
0.000177902
0.000178645
0.000179334
0.000179961
0.000180516
0.000181003
0.000181471
0.000181947
0.000182726
0.00035031
0.000161263
9.3973e-05
6.94704e-05
6.40385e-05
6.82457e-05
7.71357e-05
8.7831e-05
9.8728e-05
0.000109027
0.000118406
0.0001268
0.000134265
0.000140906
0.000146839
0.000152175
0.000157013
0.00016144
0.000165526
0.000169334
0.000172912
0.000176299
0.000179524
0.000182615
0.000185596
0.000188491
0.000191317
0.000194074
0.000196744
0.000199296
0.000201728
0.000204095
0.000206529
0.00020917
0.000211997
0.000396065
0.000222482
0.000177521
0.000164509
0.000160915
0.000160626
0.000161643
0.000163187
0.000164983
0.000166884
0.000168822
0.000170765
0.000172698
0.000174617
0.000176525
0.000178425
0.000180316
0.000182193
0.000184049
0.000185877
0.000187665
0.000189407
0.000191092
0.000192714
0.00019427
0.00019576
0.000197188
0.000198556
0.000199862
0.000201091
0.000202231
0.000203268
0.00020426
0.00020518
0.000206708
0.0003507
0.000164023
0.000100046
8.00742e-05
7.94894e-05
8.76089e-05
9.89446e-05
0.000110678
0.000121458
0.000130701
0.000138145
0.00014373
0.000147591
0.000149914
0.000150922
0.000150856
0.000149956
0.00014844
0.000146495
0.000144271
0.000141885
0.000139423
0.000136945
0.000134493
0.000132092
0.000129764
0.000127531
0.000125419
0.000123455
0.000121648
0.00011996
0.000118279
0.000116436
0.000114224
0.00011178
0.000350735
0.000164082
0.000100153
8.02775e-05
7.98044e-05
8.79984e-05
9.93554e-05
0.000111072
0.000121819
0.000131025
0.000138441
0.000144005
0.00014785
0.00015016
0.000151157
0.000151082
0.000150173
0.00014865
0.000146697
0.000144466
0.000142072
0.000139601
0.000137113
0.000134654
0.000132257
0.000129949
0.000127748
0.000125653
0.000123639
0.000121646
0.000119611
0.000117523
0.00011553
0.000113954
0.000113466
0.000356044
0.000192853
0.000159651
0.00015625
0.000159493
0.000164152
0.000168874
0.000173231
0.000177067
0.000180265
0.000182786
0.000184593
0.000185627
0.000185867
0.000185346
0.000184138
0.00018235
0.000180099
0.000177503
0.000174675
0.000171708
0.000168671
0.000165617
0.000162592
0.000159635
0.000156781
0.000154056
0.00015146
0.000148944
0.000146404
0.000143725
0.000140883
0.000138134
0.000136061
0.000135699
0.000356299
0.000193226
0.00015943
0.000154678
0.000156746
0.000160606
0.000164814
0.00016884
0.000172461
0.000175518
0.00017796
0.000179718
0.000180727
0.000180964
0.000180456
0.000179277
0.000177531
0.000175329
0.000172792
0.000170027
0.000167124
0.000164154
0.000161166
0.000158199
0.000155279
0.000152432
0.00014969
0.000147097
0.000144699
0.000142515
0.000140483
0.00013841
0.000136008
0.000132922
0.000129249
0.000349464
0.000160192
8.82501e-05
5.53485e-05
3.81306e-05
2.82316e-05
2.22209e-05
1.85633e-05
1.65547e-05
1.58936e-05
1.64773e-05
1.82806e-05
2.12714e-05
2.53566e-05
3.03629e-05
3.60552e-05
4.21771e-05
4.84939e-05
5.48179e-05
6.10161e-05
6.70038e-05
7.27338e-05
7.81856e-05
8.3357e-05
8.8257e-05
9.29018e-05
9.73114e-05
0.000101505
0.000105497
0.000109298
0.00011292
0.00011638
0.00011971
0.000122948
0.00012608
0.000449176
0.000260823
0.000203014
0.00018365
0.000176385
0.000173777
0.000173319
0.000173901
0.000174934
0.000176102
0.000177184
0.000178014
0.000178458
0.000178436
0.00017792
0.000176927
0.000175507
0.000173733
0.00017168
0.000169425
0.000167037
0.000164575
0.000162083
0.000159597
0.000157141
0.000154739
0.000152415
0.000150196
0.000148106
0.000146152
0.000144298
0.000142449
0.000140443
0.000138202
0.000135511
0.000350383
0.000162144
9.49956e-05
7.05822e-05
6.53399e-05
6.98773e-05
7.91941e-05
9.03098e-05
0.000101516
0.000111964
0.000121328
0.000129551
0.000136695
0.00014285
0.000148102
0.000152531
0.000156207
0.000159214
0.00016163
0.00016353
0.000164993
0.00016609
0.000166892
0.000167459
0.000167848
0.000168106
0.000168274
0.000168386
0.000168467
0.00016853
0.000168573
0.000168578
0.000168547
0.000168465
0.000168629
0.000836219
0.000518915
0.000379726
0.000331674
0.000311523
0.000301429
0.000296082
0.000293266
0.000291906
0.000291409
0.000291416
0.000291689
0.000292044
0.000292334
0.00029245
0.000292318
0.000291897
0.000291177
0.000290169
0.000288904
0.00028742
0.000285761
0.000283972
0.000282093
0.00028016
0.000278204
0.000276252
0.000274327
0.000272445
0.000270622
0.000268853
0.000267152
0.000265434
0.000263964
0.000261698
0.000899897
0.000525683
0.000377697
0.000327011
0.000305811
0.000295401
0.000289912
0.000287136
0.000285947
0.000285719
0.000286115
0.000286947
0.000288098
0.000289493
0.00029108
0.000292823
0.000294691
0.000296662
0.000298715
0.000300834
0.000303003
0.000305212
0.000307448
0.000309707
0.000311983
0.000314272
0.000316565
0.000318844
0.000321084
0.000323276
0.000325439
0.000327635
0.00032994
0.000332258
0.000335123
0.000371236
0.000207289
0.000171432
0.000165901
0.000167746
0.000171434
0.000175439
0.000179309
0.000182857
0.00018604
0.000188834
0.000191204
0.000193116
0.000194536
0.000195452
0.000195873
0.000195829
0.00019537
0.000194558
0.00019346
0.000192142
0.000190664
0.000189078
0.000187428
0.00018575
0.000184074
0.000182428
0.000180832
0.000179299
0.000177823
0.000176379
0.000174909
0.000173413
0.000171784
0.000170792
0.000350595
0.000161995
9.58701e-05
7.29806e-05
6.91843e-05
7.46352e-05
8.42351e-05
9.51765e-05
0.000105991
0.000115999
0.000124972
0.000132898
0.000139896
0.000146103
0.000151646
0.000156636
0.000161171
0.000165328
0.000169172
0.000172751
0.000176103
0.000179258
0.000182238
0.000185059
0.000187739
0.000190292
0.000192731
0.000195065
0.000197292
0.000199398
0.000201377
0.000203243
0.000205061
0.000206921
0.000208982
0.000353894
0.000188834
0.000154788
0.000152035
0.000156332
0.000161958
0.00016746
0.000172429
0.000176745
0.000180297
0.000183084
0.000185078
0.000186237
0.000186556
0.000186078
0.000184889
0.000183108
0.000180857
0.000178261
0.000175433
0.000172466
0.000169428
0.000166373
0.000163349
0.000160395
0.000157546
0.000154828
0.000152237
0.000149724
0.000147181
0.000144496
0.000141653
0.00013893
0.000136928
0.000136705
0.000353626
0.000188804
0.00015474
0.000151543
0.000155389
0.000160684
0.000165956
0.000170766
0.00017497
0.000178444
0.000181181
0.000183142
0.000184282
0.000184591
0.000184114
0.000182934
0.000181167
0.000178933
0.000176358
0.000173552
0.000170611
0.000167602
0.000164576
0.000161574
0.000158623
0.000155747
0.00015298
0.000150367
0.000147956
0.000145761
0.000143715
0.000141616
0.000139166
0.000136009
0.000132283
0.000349445
0.000160103
8.81325e-05
5.52177e-05
3.79418e-05
2.78784e-05
2.15333e-05
1.72809e-05
1.42936e-05
1.21196e-05
1.05e-05
9.28252e-06
8.37879e-06
7.7422e-06
7.35591e-06
7.22578e-06
7.37518e-06
7.83969e-06
8.66035e-06
9.8758e-06
1.15141e-05
1.3586e-05
1.60807e-05
1.89656e-05
2.21892e-05
2.56871e-05
2.93898e-05
3.32297e-05
3.7147e-05
4.10927e-05
4.50292e-05
4.89305e-05
5.27793e-05
5.65621e-05
6.02361e-05
0.000378352
0.000216812
0.00018153
0.000176014
0.000177806
0.000181407
0.000185228
0.000188879
0.000192202
0.000195179
0.0001978
0.000200039
0.000201851
0.000203198
0.000204062
0.000204446
0.000204374
0.000203889
0.000203049
0.000201914
0.00020055
0.000199016
0.000197364
0.000195642
0.000193884
0.000192121
0.000190377
0.000188677
0.000187043
0.000185494
0.000184042
0.000182658
0.000181327
0.000179838
0.000178656
0.000356694
0.000180259
0.00013671
0.000131531
0.000136891
0.000144393
0.000151682
0.000158194
0.000163882
0.000168854
0.000173236
0.000177141
0.000180661
0.000183865
0.000186802
0.000189503
0.000191986
0.000194261
0.000196333
0.000198208
0.000199892
0.000201396
0.000202729
0.000203907
0.000204946
0.000205864
0.000206682
0.000207421
0.000208095
0.000208712
0.000209264
0.000209727
0.000210117
0.000210391
0.000211077
0.000380185
0.000208481
0.000165085
0.000152994
0.000150402
0.000151136
0.000153105
0.000155515
0.000158046
0.000160561
0.000163009
0.000165379
0.000167667
0.000169888
0.000172061
0.000174202
0.000176325
0.000178437
0.000180542
0.000182644
0.000184739
0.000186823
0.00018889
0.000190937
0.00019296
0.000194962
0.00019694
0.000198884
0.000200767
0.000202553
0.000204222
0.000205802
0.000207422
0.000209191
0.000211497
0.000863621
0.000531878
0.000387827
0.000338093
0.000316947
0.000306193
0.000300474
0.000297485
0.000296042
0.000295496
0.000295443
0.00029561
0.000295786
0.000295813
0.000295584
0.000295034
0.000294139
0.000292905
0.000291364
0.000289561
0.000287547
0.000285375
0.000283094
0.000280746
0.000278369
0.000275994
0.000273648
0.000271353
0.000269126
0.000266975
0.000264891
0.00026288
0.000260835
0.000259074
0.000256435
0.000844881
0.000516898
0.000373778
0.00032535
0.000305084
0.000294916
0.000289618
0.00028694
0.000285738
0.000285391
0.000285517
0.00028584
0.000286155
0.000286305
0.000286183
0.000285725
0.000284909
0.000283745
0.000282268
0.000280527
0.000278576
0.000276469
0.000274257
0.000271983
0.000269685
0.000267395
0.000265135
0.000262924
0.000260766
0.000258663
0.000256601
0.000254607
0.000252629
0.00025107
0.000248827
0.000356969
0.00018492
0.000146011
0.000142605
0.000148081
0.000155078
0.000161739
0.000167705
0.000172985
0.000177671
0.000181848
0.000185602
0.000189018
0.000192167
0.000195099
0.00019785
0.000200443
0.000202892
0.000205205
0.000207387
0.000209442
0.000211372
0.00021318
0.000214869
0.000216447
0.000217926
0.000219323
0.00022065
0.000221904
0.000223065
0.000224108
0.000225027
0.000225924
0.000226837
0.000228556
0.00034983
0.000160485
9.01135e-05
6.06994e-05
4.92787e-05
4.77388e-05
5.22978e-05
6.05002e-05
7.05196e-05
8.10581e-05
9.13082e-05
0.000100854
0.000109541
0.000117365
0.000124391
0.000130713
0.000136427
0.000141627
0.000146394
0.000150795
0.000154886
0.000158715
0.000162317
0.000165725
0.000168965
0.000172061
0.000175033
0.00017789
0.000180627
0.000183236
0.000185715
0.0001881
0.000190469
0.000192914
0.000195478
0.00035029
0.000161281
9.40484e-05
6.96781e-05
6.44436e-05
6.88501e-05
7.7879e-05
8.8632e-05
9.95123e-05
0.000109727
0.00011898
0.000127224
0.00013453
0.000141018
0.000146809
0.000152017
0.000156744
0.000161075
0.000165079
0.000168812
0.000172316
0.000175625
0.000178766
0.000181758
0.000184621
0.000187371
0.000190021
0.000192576
0.000195025
0.000197354
0.000199556
0.000201664
0.000203762
0.000205956
0.000208325
0.000352628
0.000170004
0.000119331
0.000111308
0.000117239
0.000126775
0.000136361
0.000144967
0.000152444
0.000158906
0.000164517
0.000169433
0.000173791
0.000177708
0.000181279
0.000184584
0.00018768
0.000190615
0.000193423
0.000196131
0.000198756
0.000201311
0.000203801
0.000206232
0.00020861
0.000210942
0.000213233
0.000215475
0.000217644
0.000219703
0.000221637
0.000223486
0.000225373
0.000227457
0.000229841
0.000349923
0.000161201
9.10788e-05
6.2092e-05
5.13525e-05
5.0637e-05
5.59616e-05
6.47307e-05
7.50862e-05
8.57731e-05
9.60435e-05
0.000105522
0.000114076
0.000121701
0.000128447
0.000134381
0.000139569
0.000144076
0.000147965
0.0001513
0.000154142
0.000156551
0.000158589
0.000160312
0.000161776
0.00016303
0.000164119
0.000165084
0.000165955
0.000166754
0.000167492
0.000168165
0.000168786
0.000169352
0.000170091
0.000351971
0.000170004
0.00011721
0.000107946
0.000114149
0.000124859
0.000135873
0.000145759
0.000154148
0.000160992
0.000166273
0.000170106
0.000172596
0.000173862
0.000174051
0.000173339
0.00017191
0.000169942
0.000167594
0.000164999
0.000162264
0.000159467
0.000156666
0.000153899
0.000151192
0.000148565
0.000146041
0.000143655
0.000141442
0.000139418
0.000137539
0.000135662
0.000133569
0.000130961
0.000127988
0.000352106
0.000170511
0.00011842
0.000109406
0.000115449
0.000125844
0.000136559
0.000146212
0.000154428
0.000161153
0.00016639
0.000170198
0.000172677
0.000173936
0.000174122
0.000173405
0.000171969
0.000169993
0.000167636
0.000165032
0.000162287
0.000159477
0.000156661
0.000153884
0.000151181
0.000148582
0.000146106
0.000143751
0.000141481
0.000139218
0.000136875
0.000134432
0.000132086
0.000130257
0.000129835
0.000349455
0.000160209
8.82333e-05
5.53016e-05
3.80117e-05
2.79544e-05
2.16476e-05
1.7484e-05
1.46673e-05
1.27939e-05
1.16736e-05
1.12431e-05
1.15166e-05
1.25479e-05
1.43932e-05
1.70779e-05
2.05723e-05
2.47851e-05
2.95738e-05
3.47684e-05
4.01968e-05
4.57067e-05
5.11778e-05
5.65245e-05
6.16946e-05
6.66595e-05
7.14067e-05
7.59366e-05
8.02554e-05
8.43711e-05
8.82923e-05
9.20318e-05
9.56076e-05
9.90403e-05
0.000102327
0.00034959
0.000160278
8.86941e-05
5.68115e-05
4.15246e-05
3.482e-05
3.35444e-05
3.61723e-05
4.16549e-05
4.90631e-05
5.75596e-05
6.6463e-05
7.5291e-05
8.37485e-05
9.16849e-05
9.90412e-05
0.000105818
0.000112049
0.000117776
0.000123058
0.000127949
0.000132495
0.000136741
0.000140722
0.000144473
0.000148024
0.000151401
0.000154619
0.000157687
0.000160604
0.000163376
0.000166032
0.000168632
0.000171244
0.000173887
0.000351454
0.000165466
0.000103659
8.65651e-05
8.86494e-05
9.85879e-05
0.000110763
0.000122631
0.000133257
0.000142431
0.000150211
0.000156722
0.000162087
0.00016641
0.000169786
0.000172306
0.000174063
0.000175161
0.000175705
0.0001758
0.000175544
0.000175028
0.000174326
0.000173501
0.000172604
0.000171673
0.000170738
0.000169823
0.000168949
0.00016813
0.000167376
0.000166678
0.000166034
0.000165343
0.0001649
0.000354719
0.000174169
0.00012409
0.00011672
0.000123644
0.000134189
0.000144563
0.00015362
0.000161208
0.000167503
0.000172672
0.00017684
0.000180074
0.000182449
0.000184026
0.000184877
0.000185089
0.000184761
0.000183997
0.000182898
0.000181556
0.000180049
0.000178439
0.000176779
0.000175106
0.000173453
0.000171845
0.000170302
0.000168832
0.000167428
0.000166062
0.000164678
0.000163263
0.000161765
0.000160733
0.000368443
0.000200468
0.000161349
0.00015287
0.000152618
0.000155021
0.000158321
0.000161843
0.000165287
0.000168528
0.000171528
0.000174283
0.000176799
0.000179083
0.000181134
0.000182944
0.000184507
0.000185821
0.000186889
0.000187723
0.00018834
0.000188763
0.000189017
0.000189128
0.000189122
0.000189027
0.000188869
0.000188671
0.000188452
0.000188212
0.000187937
0.000187584
0.000187164
0.000186577
0.00018663
0.000352195
0.000166783
0.000109154
9.58639e-05
9.9721e-05
0.000109569
0.00012067
0.000131187
0.000140557
0.000148707
0.000155762
0.000161908
0.000167313
0.000172117
0.000176423
0.000180315
0.000183855
0.000187087
0.000190047
0.00019276
0.000195251
0.00019754
0.000199643
0.000201577
0.000203359
0.00020501
0.000206552
0.000208001
0.000209364
0.000210627
0.000211776
0.000212811
0.000213803
0.000214836
0.000216253
0.000349485
0.000160426
8.84342e-05
5.5572e-05
3.85057e-05
2.89202e-05
2.34556e-05
2.06557e-05
1.98802e-05
2.08472e-05
2.34029e-05
2.73966e-05
3.26186e-05
3.87892e-05
4.55853e-05
5.26877e-05
5.98254e-05
6.67984e-05
7.34794e-05
7.98002e-05
8.57334e-05
9.1278e-05
9.64478e-05
0.000101264
0.000105753
0.000109941
0.000113856
0.000117525
0.000120969
0.000124205
0.000127246
0.000130114
0.000132838
0.000135459
0.000138006
0.000349584
0.000160677
8.89536e-05
5.67457e-05
4.09582e-05
3.35383e-05
3.13296e-05
3.28975e-05
3.73543e-05
4.39283e-05
5.18713e-05
6.05035e-05
6.9282e-05
7.78255e-05
8.58999e-05
9.3386e-05
0.000100234
0.000106436
0.000112012
0.000116988
0.000121409
0.00012533
0.000128805
0.000131887
0.000134628
0.000137078
0.000139285
0.000141292
0.000143134
0.000144839
0.000146426
0.000147908
0.000149305
0.00015064
0.000152028
0.000356274
0.000177836
0.000130749
0.000125309
0.000132846
0.000143138
0.000152892
0.000161298
0.000168345
0.000174207
0.000179043
0.000182965
0.000186033
0.000188291
0.000189792
0.000190602
0.000190799
0.000190473
0.000189718
0.000188627
0.000187289
0.000185777
0.000184156
0.000182477
0.000180778
0.00017909
0.000177435
0.000175837
0.000174314
0.000172885
0.000171557
0.000170305
0.000169105
0.000167767
0.000166679
0.000354851
0.000176463
0.000131426
0.000126412
0.000132827
0.000141501
0.00014977
0.000157042
0.000163336
0.000168793
0.000173575
0.000177804
0.000181595
0.000185041
0.000188222
0.000191203
0.000194029
0.000196734
0.000199342
0.000201869
0.000204324
0.000206713
0.000209037
0.000211295
0.00021349
0.000215627
0.00021771
0.000219736
0.000221688
0.000223536
0.000225258
0.000226866
0.000228453
0.000230146
0.000232229
0.000359665
0.000186571
0.000145902
0.000142148
0.000147924
0.000155393
0.000162414
0.000168503
0.000173712
0.000178164
0.000181952
0.000185124
0.000187697
0.00018968
0.000191086
0.00019194
0.000192285
0.00019218
0.000191694
0.0001909
0.000189867
0.000188659
0.000187331
0.000185929
0.00018449
0.000183047
0.000181625
0.000180247
0.000178926
0.000177658
0.000176418
0.000175152
0.00017385
0.000172423
0.000171549
0.000361164
0.000189864
0.000150872
0.000144563
0.000146517
0.000150529
0.000154896
0.000159096
0.000162985
0.000166552
0.00016983
0.000172866
0.000175702
0.00017838
0.000180934
0.000183397
0.000185796
0.000188147
0.000190468
0.000192767
0.000195052
0.000197324
0.000199584
0.000201834
0.000204082
0.000206338
0.000208605
0.000210861
0.000213059
0.00021514
0.000217096
0.000219027
0.000221155
0.000223709
0.000226744
0.000349511
0.000161099
8.90266e-05
5.59478e-05
3.85468e-05
2.84411e-05
2.21599e-05
1.81131e-05
1.55311e-05
1.40442e-05
1.3497e-05
1.3851e-05
1.51219e-05
1.73282e-05
2.04491e-05
2.43987e-05
2.90228e-05
3.41177e-05
3.94611e-05
4.48468e-05
5.0104e-05
5.51102e-05
5.97901e-05
6.41092e-05
6.8063e-05
7.16674e-05
7.49512e-05
7.79494e-05
8.06991e-05
8.32357e-05
8.55906e-05
8.77881e-05
8.98508e-05
9.178e-05
9.36453e-05
0.000350583
0.000161741
9.56873e-05
7.31161e-05
6.9848e-05
7.5834e-05
8.58071e-05
9.69247e-05
0.000107776
0.000117765
0.000126716
0.000134653
0.000141678
0.000147918
0.000153494
0.000158513
0.000163073
0.000167255
0.000171128
0.000174748
0.000178161
0.000181401
0.000184496
0.000187469
0.000190344
0.000193144
0.000195883
0.00019856
0.000201153
0.000203628
0.000205978
0.000208263
0.000210624
0.00021321
0.000216024
0.000846855
0.00050238
0.00036178
0.00031522
0.00029569
0.000285913
0.00028086
0.000278387
0.000277402
0.000277281
0.000277673
0.000278353
0.000279158
0.000279959
0.000280653
0.000281165
0.000281442
0.00028146
0.000281216
0.000280726
0.000280015
0.000279117
0.000278068
0.000276902
0.000275654
0.000274352
0.000273024
0.000271689
0.00027036
0.000269043
0.000267731
0.000266445
0.000265136
0.000264117
0.000262431
0.000349776
0.000160433
8.97771e-05
5.97955e-05
4.75318e-05
4.49389e-05
4.83892e-05
5.55976e-05
6.48497e-05
7.48818e-05
8.48631e-05
9.43243e-05
0.000103056
0.000111003
0.000118192
0.000124695
0.000130594
0.000135972
0.000140903
0.000145451
0.000149671
0.000153608
0.000157299
0.000160773
0.000164059
0.00016718
0.000170156
0.000172996
0.000175704
0.000178275
0.00018071
0.000183035
0.000185313
0.000187624
0.000190024
0.000349448
0.000160143
8.81908e-05
5.52728e-05
3.79885e-05
2.7917e-05
2.15642e-05
1.73029e-05
1.4303e-05
1.21095e-05
1.04583e-05
9.18959e-06
8.20427e-06
7.44121e-06
6.86464e-06
6.45738e-06
6.217e-06
6.15358e-06
6.28812e-06
6.65081e-06
7.27857e-06
8.21167e-06
9.48951e-06
1.11459e-05
1.32042e-05
1.56733e-05
1.85447e-05
2.17913e-05
2.53692e-05
2.92214e-05
3.32834e-05
3.7489e-05
4.17739e-05
4.60779e-05
5.03194e-05
0.000353323
0.000172795
0.000125285
0.000118935
0.000125096
0.000134122
0.000142974
0.000150851
0.000157675
0.000163579
0.00016873
0.000173281
0.000177355
0.000181055
0.000184462
0.000187639
0.000190637
0.000193497
0.000196251
0.000198924
0.000201533
0.000204091
0.000206605
0.000209083
0.000211536
0.000213979
0.000216419
0.00021884
0.000221198
0.000223438
0.00022555
0.000227621
0.000229857
0.000232485
0.000235504
0.000350065
0.000160964
9.15378e-05
6.37264e-05
5.44409e-05
5.51395e-05
6.1507e-05
7.08024e-05
8.12033e-05
9.16107e-05
0.000101431
0.000110423
0.000118531
0.000125805
0.000132331
0.000138205
0.000143519
0.000148355
0.00015278
0.00015685
0.000160611
0.0001641
0.000167345
0.000170372
0.000173204
0.00017586
0.000178362
0.000180726
0.000182958
0.000185058
0.000187026
0.000188872
0.000190643
0.000192406
0.000194314
0.000492469
0.0002947
0.000225854
0.000201296
0.000191509
0.000187448
0.00018606
0.000186028
0.000186683
0.000187671
0.000188784
0.000189874
0.000190828
0.000191558
0.000192005
0.000192136
0.000191942
0.000191441
0.000190663
0.000189652
0.000188453
0.000187112
0.00018567
0.000184163
0.000182624
0.000181079
0.000179551
0.000178058
0.000176609
0.000175202
0.000173818
0.000172433
0.000171034
0.000169687
0.000168422
0.000883244
0.000533522
0.000384411
0.000331467
0.000309191
0.000298227
0.00029241
0.000289418
0.000288089
0.000287777
0.000288124
0.000288921
0.000290043
0.000291412
0.000292976
0.000294699
0.000296551
0.000298511
0.000300557
0.000302673
0.000304845
0.000307058
0.000309302
0.000311568
0.00031385
0.000316142
0.00031843
0.000320696
0.000322921
0.000325103
0.000327264
0.000329463
0.000331758
0.000334051
0.000336788
0.000349885
0.000160642
9.0074e-05
6.02292e-05
4.8201e-05
4.5938e-05
4.97455e-05
5.72772e-05
6.67974e-05
7.70438e-05
8.72097e-05
9.68356e-05
0.000105714
0.000113789
0.000121089
0.000127677
0.000133632
0.000139033
0.000143957
0.000148473
0.00015264
0.000156508
0.000160117
0.0001635
0.000166688
0.000169707
0.000172582
0.000175327
0.000177941
0.000180414
0.000182741
0.000184947
0.000187112
0.000189329
0.000191692
0.000349643
0.00016181
8.96878e-05
5.6804e-05
4.00025e-05
3.11384e-05
2.70243e-05
2.63287e-05
2.83755e-05
3.26062e-05
3.83795e-05
4.49928e-05
5.17927e-05
5.82724e-05
6.41072e-05
6.91355e-05
7.33162e-05
7.66853e-05
7.93221e-05
8.13255e-05
8.27985e-05
8.38392e-05
8.4536e-05
8.49654e-05
8.51918e-05
8.52692e-05
8.52416e-05
8.51448e-05
8.50059e-05
8.48423e-05
8.46612e-05
8.44593e-05
8.42379e-05
8.39959e-05