/*--------------------------------*- C++ -*----------------------------------*\
| =========                 |                                                 |
| \\      /  F ield         | OpenFOAM: The Open Source CFD Toolbox           |
|  \\    /   O peration     | Version:  2.4.x                                 |
|   \\  /    A nd           | Web:      www.OpenFOAM.org                      |
|    \\/     M anipulation  |                                                 |
\*---------------------------------------------------------------------------*/
FoamFile
{
    version     2.0;
    format      ascii;
    class       volScalarField;
    location    "10000/coolant";
    object      mut;
}
// * * * * * * * * * * * * * * * * * * * * * * * * * * * * * * * * * * * * * //

dimensions      [1 -1 -1 0 0 0 0];

internalField   nonuniform List<scalar> 
109760
(
0.00166908
0.0011465
0.000893008
0.000753796
0.000672562
0.000627867
0.00061362
0.000631602
0.000686609
0.000781877
0.000917094
0.00108982
0.00129627
0.00153059
0.00178527
0.00205254
0.00232557
0.00259895
0.00286869
0.00313195
0.00338691
0.00363246
0.00386809
0.00409366
0.00430932
0.00451552
0.00471283
0.00490181
0.00508265
0.00525509
0.0054187
0.00557386
0.00572283
0.00586955
0.00601857
0.00167389
0.0011589
0.000950125
0.000918914
0.00102159
0.00121318
0.0014501
0.00170716
0.0019698
0.00222802
0.00247518
0.00270796
0.00292505
0.00312631
0.00331226
0.00348382
0.00364205
0.00378812
0.00392318
0.00404835
0.00416466
0.00427301
0.00437412
0.00446869
0.00455741
0.00464115
0.00472079
0.00479686
0.00486909
0.00493637
0.00499762
0.00505338
0.00510764
0.0051665
0.00523886
0.00110524
0.0007382
0.000686753
0.000692482
0.000710173
0.000731501
0.000752979
0.000773031
0.000790992
0.000806742
0.000820253
0.000831457
0.000840309
0.00084679
0.000850966
0.00085298
0.000853052
0.000851453
0.000848483
0.000844438
0.000839594
0.000834191
0.000828426
0.000822459
0.000816419
0.000810417
0.000804557
0.000798932
0.000793598
0.000788507
0.000783503
0.000778171
0.000772498
0.000765393
0.000762074
0.00162523
0.00114829
0.00106802
0.00114252
0.0012707
0.00141234
0.00155046
0.00167793
0.00179251
0.00189438
0.00198476
0.002065
0.00213651
0.00220059
0.00225835
0.00231076
0.0023586
0.0024026
0.00244338
0.00248146
0.00251727
0.00255112
0.00258323
0.00261381
0.00264313
0.00267162
0.00269966
0.0027273
0.00275388
0.00277817
0.00279928
0.00281799
0.002838
0.00286453
0.00290299
0.00102583
0.000661068
0.000607604
0.000612266
0.000629473
0.000649975
0.000670389
0.000689312
0.0007065
0.000722018
0.000736036
0.000748747
0.000760337
0.000770978
0.000780816
0.000789961
0.000798487
0.000806438
0.000813842
0.000820716
0.000827076
0.000832939
0.000838322
0.00084325
0.000847756
0.000851886
0.0008557
0.000859265
0.000862629
0.000865781
0.00086867
0.000871098
0.00087324
0.000874429
0.000878753
0.00167174
0.00115319
0.000934255
0.000883276
0.00095964
0.00112837
0.00135023
0.00159899
0.00185851
0.00211736
0.00236787
0.00260557
0.00282832
0.00303555
0.00322755
0.00340515
0.00356941
0.00372148
0.00386253
0.0039937
0.004116
0.00423034
0.00433751
0.00443821
0.00453326
0.00462352
0.00470982
0.00479252
0.00487117
0.00494459
0.00501192
0.00507434
0.00513656
0.0052054
0.00528733
0.00166884
0.00114407
0.000889674
0.000748591
0.000662281
0.000605292
0.000565372
0.000536073
0.000513745
0.0004962
0.00048206
0.000470431
0.000460714
0.000452511
0.00044557
0.000439761
0.000435074
0.000431622
0.000429665
0.000429633
0.000432157
0.000438085
0.000448492
0.00046467
0.000488122
0.000520564
0.000563998
0.000620816
0.000693854
0.000786299
0.000901399
0.00104208
0.00121045
0.00140746
0.0016297
0.00167517
0.001169
0.000996234
0.001021
0.00116681
0.00137002
0.00159602
0.0018276
0.00205436
0.00227006
0.00247146
0.00265761
0.00282872
0.00298561
0.00312935
0.00326109
0.00338195
0.00349294
0.00359497
0.00368885
0.00377529
0.00385491
0.00392826
0.00399588
0.0040583
0.00411612
0.00416999
0.00422045
0.00426778
0.00431186
0.00435223
0.00438858
0.00442188
0.00445393
0.00449349
0.0016689
0.00114554
0.000891288
0.000750242
0.000663892
0.000606891
0.0005671
0.00053825
0.00051702
0.000501797
0.000492153
0.000488647
0.000492744
0.000506702
0.000533302
0.000575467
0.000636024
0.00071777
0.000823552
0.00095579
0.00111562
0.00130224
0.00151288
0.00174327
0.00198833
0.00224301
0.00250279
0.00276411
0.00302439
0.00328183
0.00353517
0.00378359
0.00402667
0.00426458
0.00449648
0.00156877
0.00110884
0.00104682
0.00111857
0.00122602
0.00133787
0.00144304
0.00153757
0.00162007
0.00169042
0.00174843
0.00179424
0.00182818
0.00185093
0.00186359
0.00186757
0.00186441
0.00185565
0.00184272
0.00182682
0.00180901
0.00179008
0.0017706
0.00175097
0.00173141
0.00171211
0.00169333
0.00167552
0.00165933
0.00164533
0.00163352
0.00162229
0.0016085
0.00158577
0.00155464
0.00160331
0.00114268
0.0010813
0.00115694
0.00127148
0.00139133
0.00150367
0.0016042
0.0016918
0.00176659
0.00182857
0.00187778
0.00191452
0.00193944
0.00195362
0.0019585
0.0019557
0.00194688
0.00193358
0.00191714
0.00189864
0.00187892
0.00185857
0.00183804
0.00181771
0.00179797
0.00177921
0.00176168
0.00174518
0.00172871
0.00171048
0.00168858
0.00166341
0.00163836
0.00162841
0.00151283
0.00107193
0.00103197
0.00111013
0.00121052
0.00130826
0.00139633
0.00147291
0.00153901
0.00159537
0.00164229
0.00167986
0.00170825
0.00172789
0.00173953
0.00174414
0.00174286
0.00173683
0.00172718
0.0017149
0.00170084
0.00168566
0.00166987
0.00165384
0.00163781
0.00162197
0.00160649
0.0015917
0.00157803
0.00156591
0.00155548
0.00154583
0.00153527
0.00151891
0.00149944
0.00153841
0.00108524
0.00103417
0.0011079
0.00121051
0.00131391
0.00140809
0.00149047
0.00156189
0.00162304
0.00167416
0.00171539
0.00174693
0.00176919
0.00178289
0.00178902
0.00178875
0.00178334
0.00177397
0.00176175
0.00174759
0.0017322
0.00171614
0.00169981
0.00168354
0.00166762
0.00165235
0.00163797
0.00162451
0.00161154
0.00159809
0.00158267
0.00156491
0.00154475
0.00153268
0.000833454
0.000579787
0.000515907
0.000496791
0.000492841
0.000495012
0.000499633
0.000505035
0.000510577
0.000516038
0.000521315
0.000526371
0.000531208
0.000535844
0.000540299
0.000544593
0.00054873
0.000552708
0.000556516
0.000560145
0.000563584
0.000566824
0.000569859
0.00057269
0.000575321
0.00057777
0.000580059
0.000582214
0.000584252
0.000586156
0.000587889
0.000589366
0.000590677
0.000591602
0.000593846
0.00167277
0.00116209
0.000965369
0.00095261
0.00106895
0.00126174
0.00149126
0.0017353
0.00197986
0.00221588
0.0024381
0.00264399
0.00283264
0.00300394
0.00315816
0.00329579
0.00341746
0.00352402
0.00361653
0.00369624
0.00376452
0.00382282
0.00387256
0.00391511
0.00395176
0.00398368
0.00401194
0.00403753
0.00406125
0.00408355
0.00410441
0.00412311
0.00413906
0.00415092
0.00416546
0.00167375
0.00117364
0.00102272
0.00106927
0.00122041
0.00141673
0.00163003
0.00184479
0.00205156
0.00224535
0.00242409
0.00258747
0.00273609
0.00287094
0.00299316
0.00310378
0.00320371
0.00329377
0.00337469
0.0034472
0.003512
0.00356979
0.00362127
0.00366715
0.00370812
0.00374492
0.00377827
0.00380887
0.00383729
0.00386376
0.00388819
0.00391006
0.0039294
0.00394573
0.00396719
0.00166963
0.00119789
0.00111888
0.00122154
0.00138946
0.00157364
0.0017546
0.00192401
0.00207885
0.00221838
0.00234353
0.00245558
0.00255596
0.00264617
0.00272755
0.00280134
0.00286863
0.0029303
0.00298705
0.00303948
0.00308804
0.00313313
0.00317506
0.00321408
0.00325049
0.00328463
0.00331685
0.00334743
0.00337638
0.00340331
0.00342767
0.00344912
0.00346874
0.00348834
0.00351631
0.00158179
0.00111086
0.00103293
0.00109414
0.00119811
0.0013105
0.0014189
0.00151821
0.00160689
0.00168515
0.00175387
0.00181409
0.00186682
0.00191291
0.00195301
0.00198762
0.00201717
0.0020421
0.00206282
0.0020798
0.0020935
0.0021044
0.00211296
0.0021196
0.00212471
0.00212867
0.00213183
0.00213454
0.00213708
0.00213951
0.00214166
0.00214278
0.00214258
0.00213923
0.00214137
0.000621077
0.000410682
0.00036056
0.000346193
0.000343604
0.000345385
0.00034877
0.000352708
0.00035677
0.000360766
0.000364608
0.000368262
0.000371728
0.000375024
0.000378163
0.000381157
0.000384008
0.000386715
0.000389275
0.000391682
0.000393934
0.000396031
0.000397971
0.000399759
0.0004014
0.000402914
0.000404327
0.000405663
0.000406927
0.000408082
0.000409081
0.000409875
0.000410611
0.00041126
0.000413146
0.00167245
0.00115825
0.000961871
0.000951075
0.00106793
0.0012586
0.00148523
0.00172754
0.00197249
0.0022111
0.00243788
0.00265004
0.00284665
0.00302793
0.00319469
0.00334803
0.00348918
0.00361937
0.0037398
0.00385159
0.0039557
0.00405299
0.00414414
0.00422982
0.00431076
0.00438779
0.00446169
0.00453274
0.00460034
0.00466314
0.00472024
0.00477295
0.00482632
0.00488738
0.00496255
0.00110241
0.000719543
0.000664278
0.000672863
0.000694026
0.000717425
0.00073994
0.000760294
0.000778582
0.000795009
0.000809844
0.000823319
0.000835638
0.000846995
0.000857568
0.000867502
0.000876905
0.000885853
0.000894395
0.00090256
0.000910364
0.000917812
0.000924902
0.000931637
0.000938025
0.000944097
0.000949896
0.000955464
0.000960803
0.000965831
0.000970434
0.00097442
0.0009781
0.000981139
0.000987909
0.00167312
0.0011753
0.00101592
0.00105851
0.00121892
0.00143075
0.00166099
0.00189205
0.00211202
0.0023127
0.00248791
0.00263456
0.00275228
0.00284224
0.00290685
0.00294936
0.00297335
0.00298241
0.00297986
0.00296857
0.00295095
0.0029289
0.00290384
0.00287682
0.00284855
0.00281963
0.0027908
0.00276315
0.00273807
0.00271666
0.00269869
0.00268097
0.00265685
0.0026168
0.00255652
0.0016734
0.00117595
0.00101764
0.00106279
0.00122643
0.00144063
0.00167201
0.0019034
0.0021233
0.00232377
0.00249888
0.0026455
0.00276324
0.00285324
0.0029179
0.00296043
0.00298444
0.00299351
0.00299095
0.00297964
0.00296193
0.00293967
0.00291432
0.00288704
0.00285881
0.00283059
0.00280321
0.00277711
0.00275172
0.00272508
0.00269414
0.00265673
0.00261566
0.00258234
0.00258001
0.00140059
0.000963562
0.000923194
0.000982716
0.00105999
0.00113652
0.00120671
0.00126865
0.00132192
0.00136627
0.00140194
0.00142919
0.00144817
0.00145926
0.0014632
0.00146095
0.00145364
0.00144236
0.00142815
0.00141198
0.0013946
0.00137653
0.00135815
0.00133978
0.00132171
0.00130428
0.00128782
0.00127245
0.00125772
0.00124237
0.00122449
0.0012027
0.00117882
0.00115892
0.00115803
0.00133374
0.000894687
0.000848051
0.000895049
0.000959285
0.00102413
0.00108421
0.00113747
0.00118329
0.00122142
0.00125207
0.00127534
0.00129135
0.00130045
0.00130326
0.00130065
0.00129359
0.00128302
0.00126993
0.00125513
0.00123928
0.00122286
0.00120621
0.00118954
0.00117299
0.00115666
0.0011408
0.00112586
0.00111247
0.00110115
0.00109169
0.00108228
0.00106953
0.00104764
0.00101658
0.00166901
0.00114637
0.000892572
0.000752305
0.000668208
0.00061703
0.000590013
0.000585975
0.000608171
0.000661622
0.000750349
0.000876114
0.00103895
0.00123702
0.00146573
0.00171785
0.00198521
0.00226024
0.00253689
0.0028108
0.00307899
0.00333956
0.00359136
0.0038338
0.00406668
0.00429016
0.0045046
0.00471045
0.0049079
0.00509678
0.00527674
0.00544801
0.00561235
0.00577313
0.0059342
0.000893048
0.000609261
0.000553991
0.000542697
0.000544173
0.000550923
0.000559599
0.000568575
0.000576952
0.000584381
0.000590584
0.000595316
0.000598379
0.000599688
0.000599294
0.000597349
0.000594075
0.000589726
0.000584555
0.000578796
0.000572656
0.000566301
0.000559853
0.000553399
0.000546999
0.000540706
0.000534591
0.000528769
0.000523386
0.000518543
0.000514179
0.000509848
0.00050482
0.000497706
0.000488983
0.00167283
0.00116289
0.000968648
0.000958345
0.00107491
0.0012668
0.00149639
0.00174122
0.00198633
0.00222214
0.00244331
0.00264735
0.00283325
0.00300084
0.00315026
0.00328202
0.00339686
0.00349588
0.00358039
0.00365188
0.00371198
0.00376231
0.00380443
0.00383981
0.00386975
0.00389546
0.003918
0.00393832
0.00395719
0.003975
0.0039916
0.00400609
0.00401772
0.0040251
0.00403475
0.0010345
0.000814923
0.000697114
0.000651515
0.000631413
0.000621099
0.000615566
0.000612631
0.00061121
0.000610689
0.000610696
0.000610982
0.000611354
0.000611657
0.000611778
0.00061164
0.0006112
0.000610446
0.000609388
0.000608058
0.000606494
0.000604742
0.000602846
0.000600848
0.000598786
0.000596691
0.000594592
0.000592514
0.000590478
0.000588504
0.000586592
0.00058476
0.000582906
0.000581304
0.000578774
0.00084057
0.00064245
0.000544565
0.000506709
0.000490009
0.000481597
0.000477102
0.000474812
0.000473828
0.000473639
0.000473967
0.000474655
0.000475606
0.000476756
0.000478062
0.00047949
0.000481018
0.000482623
0.00048429
0.000486005
0.000487755
0.00048953
0.00049132
0.00049312
0.000494926
0.000496737
0.00049855
0.000500352
0.000502119
0.000503831
0.000505487
0.000507135
0.000508858
0.000510636
0.000512933
0.0014711
0.00102816
0.000977031
0.00103048
0.00110432
0.00117771
0.00124492
0.00130434
0.00135574
0.00139976
0.00143701
0.00146794
0.00149285
0.00151201
0.0015258
0.00153467
0.00153919
0.00154
0.00153781
0.00153326
0.00152695
0.00151941
0.00151105
0.0015022
0.00149314
0.00148408
0.00147523
0.00146676
0.00145882
0.00145134
0.00144407
0.00143624
0.00142762
0.0014162
0.00141052
0.00167353
0.00116377
0.000980924
0.000990273
0.00112301
0.00132014
0.00154668
0.00178411
0.0020202
0.00224698
0.00246005
0.00265756
0.00283946
0.00300646
0.00315959
0.00330008
0.00342924
0.00354825
0.00365817
0.00375991
0.00385425
0.00394187
0.00402333
0.00409917
0.00416992
0.00423617
0.00429853
0.00435745
0.00441297
0.00446467
0.00451195
0.00455478
0.00459494
0.00463571
0.00468479
0.00148738
0.00104334
0.000998856
0.00106647
0.00115758
0.00124936
0.00133435
0.00140986
0.00147513
0.00152965
0.00157376
0.00160767
0.00163161
0.00164615
0.00165217
0.0016509
0.00164367
0.00163182
0.0016166
0.00159909
0.00158014
0.00156033
0.0015401
0.00151986
0.00149996
0.0014808
0.00146274
0.0014459
0.00142974
0.00141271
0.00139259
0.00136785
0.00134084
0.00131927
0.00132044
0.00146305
0.00101455
0.000965988
0.00102816
0.00111358
0.00119999
0.00128006
0.00135115
0.00141249
0.00146369
0.00150505
0.00153674
0.001559
0.00157236
0.00157767
0.00157607
0.00156883
0.00155722
0.00154242
0.00152547
0.00150718
0.00148815
0.00146878
0.00144937
0.00143007
0.00141102
0.00139254
0.00137519
0.00135979
0.00134696
0.00133641
0.00132576
0.00131058
0.00128386
0.00124484
0.0016689
0.00114589
0.0008917
0.000750675
0.000664331
0.000607314
0.000567465
0.00053846
0.000516873
0.000500898
0.000489783
0.000483584
0.000483073
0.000489683
0.000505418
0.000532688
0.000574103
0.000632374
0.000710325
0.000810772
0.000936026
0.0010872
0.00126376
0.00146351
0.00168301
0.00191812
0.00216466
0.0024189
0.00267784
0.00293928
0.00320166
0.0034639
0.00372528
0.00398529
0.00424218
0.00145276
0.00103109
0.00099028
0.00104847
0.00112359
0.0011963
0.00126097
0.00131725
0.00136543
0.00140646
0.00144116
0.00147002
0.00149329
0.0015112
0.00152406
0.00153231
0.00153644
0.00153706
0.00153477
0.00153018
0.00152387
0.00151632
0.00150794
0.00149907
0.00148996
0.0014808
0.00147175
0.00146296
0.00145463
0.00144695
0.00144011
0.00143386
0.00142817
0.00142026
0.00141546
0.00160886
0.00113782
0.00106266
0.00113324
0.00124874
0.00137259
0.00149137
0.00160011
0.0016974
0.00178364
0.00185985
0.00192727
0.00198706
0.00204023
0.00208762
0.00212989
0.00216754
0.00220098
0.00223055
0.0022566
0.00227944
0.00229942
0.00231684
0.00233203
0.00234529
0.00235697
0.00236738
0.00237687
0.00238571
0.00239399
0.00240161
0.00240807
0.00241329
0.00241612
0.00242337
0.00103234
0.000666257
0.000613269
0.000623311
0.000647848
0.000675302
0.000701941
0.000726405
0.000748369
0.000767918
0.000785384
0.000801078
0.000815261
0.000828214
0.000840191
0.0008514
0.000862009
0.000872143
0.000881901
0.000891353
0.000900542
0.000909489
0.000918199
0.000926674
0.000934939
0.000943041
0.000951024
0.000958872
0.000966444
0.000973465
0.000979702
0.000985173
0.00099063
0.000997026
0.00100673
0.000919869
0.000721889
0.000616429
0.000575549
0.00055726
0.000547724
0.000542585
0.00053988
0.000538569
0.000538071
0.000538024
0.000538175
0.000538335
0.00053836
0.000538152
0.000537651
0.000536834
0.000535707
0.000534297
0.000532641
0.000530785
0.000528777
0.000526659
0.000524471
0.000522246
0.000520012
0.000517794
0.000515615
0.000513494
0.000511447
0.000509468
0.000507564
0.000505619
0.00050391
0.000501273
0.000988549
0.000773219
0.000657517
0.000613445
0.000594033
0.000584049
0.000578779
0.000576098
0.00057489
0.000574541
0.000574667
0.000574992
0.000575308
0.00057546
0.000575337
0.000574877
0.000574055
0.000572881
0.000571388
0.000569623
0.000567639
0.000565489
0.000563222
0.000560882
0.000558506
0.000556128
0.000553774
0.000551463
0.000549206
0.000547001
0.000544826
0.000542691
0.000540521
0.000538741
0.000536178
0.00160151
0.00115473
0.00110798
0.00119066
0.00130745
0.00142664
0.00153821
0.00163921
0.00172925
0.00180899
0.00187937
0.00194154
0.00199671
0.00204596
0.00209016
0.00213
0.00216604
0.00219872
0.00222841
0.0022554
0.00227998
0.00230239
0.00232282
0.00234146
0.00235848
0.00237414
0.00238878
0.00240268
0.00241591
0.00242813
0.00243883
0.00244756
0.00245547
0.00246322
0.00248158
0.00167094
0.00115055
0.000918651
0.000839204
0.000875488
0.00100955
0.00121286
0.00145692
0.00172157
0.0019922
0.00225842
0.00251381
0.00275511
0.00298108
0.00319165
0.00338743
0.00356935
0.00373846
0.00389586
0.00404257
0.00417956
0.00430771
0.00442778
0.00454049
0.00464659
0.00474686
0.00484207
0.00493263
0.00501838
0.0050986
0.0051727
0.00524144
0.00530825
0.00537835
0.0054591
0.00167227
0.00115833
0.000962911
0.000954351
0.00107384
0.00126567
0.00149139
0.00173101
0.0019719
0.00220546
0.00242667
0.00263306
0.00282397
0.00299979
0.00316141
0.00331004
0.00344696
0.00357337
0.0036904
0.00379904
0.00390015
0.00399445
0.00408258
0.0041651
0.0042426
0.00431573
0.00438507
0.00445097
0.00451322
0.00457111
0.00462402
0.00467249
0.00471944
0.00476942
0.00482952
0.00164735
0.00116401
0.001075
0.00115841
0.00130483
0.00146878
0.00163051
0.00178139
0.00191835
0.00204105
0.00215036
0.00224759
0.00233424
0.00241179
0.00248157
0.0025448
0.00260248
0.00265547
0.00270449
0.00275011
0.00279282
0.00283296
0.00287082
0.00290663
0.00294065
0.00297321
0.00300459
0.00303489
0.00306373
0.00309034
0.00311408
0.00313524
0.00315611
0.00318043
0.00321367
0.00167145
0.00115484
0.000927176
0.000855485
0.000903031
0.00104712
0.00125542
0.00150022
0.00176305
0.00203033
0.00229222
0.00254246
0.00277768
0.0029963
0.00319774
0.00338194
0.00354911
0.00369969
0.00383442
0.00395425
0.00406037
0.00415414
0.00423697
0.00431029
0.0043755
0.00443393
0.0044868
0.00453528
0.00458035
0.00462264
0.00466235
0.00469907
0.00473258
0.00476183
0.00479451
0.00165963
0.00118691
0.00109935
0.00119221
0.00135431
0.001538
0.0017217
0.00189422
0.00204999
0.00218586
0.00229972
0.00239141
0.00246146
0.0025112
0.00254271
0.00255863
0.0025618
0.002555
0.00254077
0.00252127
0.00249824
0.002473
0.00244652
0.00241946
0.00239218
0.00236502
0.00233847
0.00231334
0.00229076
0.00227173
0.00225609
0.00224105
0.00222073
0.00218591
0.00213295
0.00165939
0.00118938
0.00110611
0.0011981
0.00135673
0.00153734
0.00171869
0.00188932
0.0020434
0.00217798
0.00229106
0.00238223
0.00245189
0.00250135
0.00253266
0.0025484
0.00255141
0.00254449
0.00253017
0.00251061
0.00248752
0.00246218
0.0024355
0.00240827
0.00238114
0.00235476
0.00232975
0.00230633
0.00228388
0.00226041
0.00223298
0.00219944
0.00216244
0.00213227
0.00213127
0.00166896
0.00114644
0.000892381
0.000751423
0.000665253
0.000608929
0.000570961
0.000546234
0.000533383
0.000533827
0.000551224
0.000590644
0.000657162
0.000754579
0.000885191
0.00104998
0.00124798
0.00147559
0.00172676
0.00199423
0.00227082
0.00255035
0.00282815
0.00310098
0.00336686
0.00362471
0.00387409
0.00411496
0.00434742
0.00457152
0.00478718
0.00499445
0.00519398
0.0053873
0.00557663
0.00166975
0.0011476
0.000899746
0.000779063
0.000740189
0.000774129
0.000878509
0.00104263
0.00125135
0.00149162
0.00175194
0.00202183
0.00229285
0.00255891
0.00281602
0.0030618
0.00329508
0.00351549
0.00372312
0.00391854
0.00410241
0.00427544
0.00443834
0.00459184
0.0047367
0.00487374
0.00500379
0.00512744
0.00524472
0.00535517
0.00545836
0.00555495
0.00564797
0.00574223
0.00584462
0.00167618
0.0011858
0.00104959
0.00112565
0.00131658
0.00154973
0.00179077
0.00202407
0.00224199
0.00244097
0.00261969
0.00277782
0.00291555
0.00303339
0.0031322
0.00321321
0.00327798
0.00332835
0.00336633
0.00339399
0.00341326
0.00342595
0.00343362
0.00343758
0.0034389
0.00343844
0.00343688
0.00343479
0.00343271
0.00343112
0.00343047
0.00343068
0.00343177
0.00343081
0.0034332
0.00166304
0.00119596
0.00111687
0.00121127
0.0013704
0.00154661
0.0017185
0.00187615
0.00201625
0.0021387
0.00224414
0.00233335
0.00240706
0.002466
0.00251115
0.00254378
0.0025654
0.00257773
0.00258251
0.00258141
0.00257591
0.00256728
0.00255653
0.00254446
0.00253168
0.00251871
0.00250597
0.00249387
0.00248266
0.00247227
0.00246214
0.00245095
0.00243772
0.0024206
0.0024072
0.00132025
0.000874283
0.000808884
0.000837201
0.000886158
0.000938552
0.000988767
0.00103465
0.00107554
0.00111151
0.00114302
0.00117055
0.00119456
0.00121543
0.00123343
0.00124879
0.00126167
0.00127227
0.00128078
0.00128745
0.00129249
0.00129616
0.00129869
0.00130028
0.00130115
0.00130149
0.00130149
0.00130134
0.00130118
0.00130102
0.00130072
0.00129973
0.00129796
0.00129388
0.00129494
0.00167397
0.001189
0.00108151
0.00117307
0.00135001
0.00155422
0.001762
0.0019621
0.00214898
0.00232032
0.00247554
0.00261575
0.00274226
0.00285644
0.00295949
0.00305256
0.00313663
0.00321256
0.0032811
0.00334295
0.00339877
0.00344919
0.00349474
0.00353594
0.00357327
0.00360731
0.00363873
0.00366812
0.00369576
0.00372133
0.00374418
0.00376382
0.0037815
0.00379933
0.00382581
0.00166913
0.00114759
0.000894153
0.00075554
0.000675893
0.000634512
0.000626106
0.000652713
0.000718316
0.000824959
0.000972216
0.00115835
0.00137968
0.00162954
0.00189896
0.00217861
0.00246042
0.00273847
0.00300887
0.00326935
0.00351869
0.00375638
0.00398227
0.00419653
0.00439948
0.00459169
0.00477388
0.00494678
0.00511105
0.00526712
0.00541509
0.0055552
0.00568855
0.00581731
0.00594569
0.00166972
0.0011495
0.000900595
0.000775272
0.000726292
0.00074329
0.000825973
0.000968908
0.00116064
0.00138951
0.00164445
0.00191437
0.0021894
0.00246185
0.00272623
0.00297898
0.0032178
0.00344138
0.00364915
0.00384098
0.00401736
0.00417918
0.0043275
0.00446349
0.00458848
0.00470379
0.00481073
0.00491055
0.00500432
0.0050928
0.00517633
0.00525484
0.00532854
0.00539768
0.00546795
0.00165828
0.0011984
0.00113065
0.00122993
0.00138698
0.00155515
0.00171528
0.00186024
0.00198819
0.00209947
0.00219493
0.00227538
0.0023415
0.00239409
0.00243413
0.00246284
0.00248161
0.00249199
0.00249552
0.00249369
0.00248783
0.0024791
0.00246842
0.00245654
0.00244402
0.00243125
0.00241857
0.00240628
0.00239475
0.00238435
0.0023754
0.00236762
0.00236056
0.0023506
0.00234151
0.00162534
0.00115505
0.00108606
0.00117284
0.00130883
0.00145282
0.0015895
0.00171371
0.00182454
0.00192261
0.00200927
0.00208572
0.00215358
0.00221419
0.00226869
0.00231812
0.00236326
0.00240481
0.00244329
0.00247915
0.00251272
0.00254425
0.00257392
0.00260189
0.00262834
0.00265349
0.00267759
0.00270077
0.00272288
0.00274341
0.00276174
0.00277768
0.0027925
0.00280847
0.00283182
0.00161709
0.00116016
0.00109787
0.00117584
0.00129384
0.00141691
0.00153183
0.00163472
0.00172456
0.00180222
0.00186869
0.00192482
0.0019712
0.00200841
0.00203707
0.0020579
0.00207178
0.0020797
0.00208271
0.00208181
0.00207793
0.00207188
0.00206433
0.00205582
0.00204676
0.00203751
0.00202839
0.00201968
0.00201158
0.00200408
0.00199682
0.00198882
0.00197954
0.00196666
0.00195937
0.00141208
0.000935316
0.000860904
0.000901011
0.000968313
0.00103801
0.00110307
0.00116145
0.00121295
0.00125821
0.00129807
0.00133337
0.00136486
0.00139318
0.00141888
0.00144245
0.0014643
0.00148473
0.00150402
0.00152238
0.00153999
0.00155695
0.00157331
0.00158916
0.00160463
0.00161992
0.00163518
0.00165034
0.00166491
0.00167811
0.00168953
0.00169984
0.0017115
0.00172793
0.00175097
0.00166925
0.00115112
0.000898031
0.000757487
0.000671903
0.000617154
0.000582826
0.000565332
0.000565265
0.000586022
0.000632464
0.000709383
0.000820607
0.000969024
0.00115612
0.0013805
0.00163701
0.00191732
0.0022116
0.00251021
0.00280498
0.00308979
0.00336061
0.00361521
0.00385276
0.00407342
0.00427803
0.00446786
0.00464439
0.00480912
0.00496342
0.00510819
0.00524406
0.00537048
0.00549007
0.00167382
0.00116299
0.000981673
0.000998136
0.0011426
0.00134961
0.0015813
0.0018202
0.00205578
0.00228128
0.00249295
0.00268923
0.00286995
0.00303575
0.00318769
0.00332697
0.00345485
0.00357257
0.0036813
0.00378211
0.00387596
0.00396361
0.00404572
0.00412288
0.00419577
0.00426522
0.00433198
0.00439629
0.00445747
0.00451409
0.00456518
0.00461206
0.00465991
0.00471571
0.00478685
0.000952107
0.000733326
0.000622305
0.000580882
0.000562599
0.00055322
0.00054831
0.000545891
0.000544924
0.000544805
0.00054519
0.000545857
0.000546646
0.000547429
0.000548108
0.000548607
0.000548877
0.000548895
0.000548657
0.000548179
0.000547485
0.000546606
0.000545578
0.000544433
0.000543203
0.000541918
0.000540605
0.000539285
0.000537971
0.000536672
0.000535374
0.000534085
0.000532736
0.000531626
0.000529791
0.00167069
0.00114996
0.000914495
0.000826202
0.000847685
0.000964315
0.00115179
0.00138294
0.00163834
0.00190402
0.00216959
0.00242796
0.00267491
0.00290828
0.00312729
0.00333206
0.00352319
0.0037015
0.00386786
0.00402317
0.0041683
0.00430404
0.00443111
0.00455022
0.00466207
0.00476745
0.0048671
0.00496154
0.00505078
0.00513432
0.00521169
0.00528339
0.0053522
0.00542247
0.005502
0.00166892
0.00114613
0.000892142
0.000751205
0.000664888
0.000607859
0.000567932
0.000538715
0.000516647
0.000499686
0.000486697
0.000477154
0.000471007
0.000468632
0.000470819
0.000478771
0.000494087
0.00051873
0.000555025
0.00060571
0.000674029
0.000763661
0.00087836
0.00102136
0.0011948
0.00139927
0.00163366
0.00189524
0.00218
0.00248305
0.00279921
0.00312341
0.00345098
0.00377786
0.00409876
0.00163323
0.00115404
0.00107278
0.00115305
0.00128924
0.00143888
0.00158449
0.00171906
0.00184039
0.00194862
0.00204483
0.00213043
0.00220684
0.00227535
0.00233711
0.00239314
0.00244431
0.00249139
0.00253501
0.00257576
0.00261406
0.00265025
0.00268458
0.00271727
0.00274864
0.00277912
0.00280906
0.00283844
0.00286656
0.00289219
0.00291458
0.00293473
0.0029566
0.00298579
0.00302631
0.00167216
0.00115502
0.000935645
0.000881923
0.000952654
0.00111407
0.00132901
0.00157225
0.00182767
0.00208378
0.00233258
0.00256924
0.00279156
0.00299891
0.00319145
0.00336989
0.00353512
0.00368813
0.00382984
0.00396111
0.00408273
0.00419542
0.00429985
0.00439666
0.00448651
0.00457015
0.00464833
0.00472169
0.00479059
0.0048549
0.00491422
0.00496844
0.00501893
0.00506825
0.00512451
0.000899348
0.00064097
0.000578386
0.000559797
0.000555861
0.000558361
0.000563504
0.000569644
0.000575883
0.000581801
0.00058717
0.000591813
0.000595599
0.000598431
0.000600263
0.000601102
0.000601005
0.000600069
0.000598415
0.000596177
0.000593487
0.000590463
0.00058721
0.000583815
0.000580353
0.000576888
0.000573481
0.000570183
0.000567028
0.000563993
0.000560997
0.000557847
0.000554516
0.000550596
0.000548137
0.000945481
0.000734834
0.00062375
0.000579206
0.000559405
0.000549397
0.000544013
0.000541222
0.000539978
0.000539685
0.000540011
0.000540757
0.000541806
0.000543083
0.000544539
0.000546137
0.000547851
0.000549658
0.000551539
0.000553477
0.00055546
0.000557473
0.000559505
0.000561549
0.000563601
0.000565655
0.000567704
0.000569732
0.000571715
0.000573637
0.000575506
0.000577376
0.000579329
0.000581337
0.000583836
0.00167144
0.00115179
0.0009182
0.000833424
0.000861216
0.000986376
0.0011825
0.00142176
0.00168501
0.00195832
0.00223119
0.00249643
0.00274973
0.00298886
0.00321292
0.00342186
0.00361613
0.00379654
0.00396407
0.00411975
0.00426462
0.0043996
0.00452551
0.00464309
0.00475314
0.00485654
0.00495426
0.00504702
0.00513486
0.00521705
0.00529269
0.0053621
0.00542856
0.00549738
0.00557723
0.00166997
0.00115494
0.00090376
0.000769465
0.000700449
0.000682452
0.000717166
0.000809229
0.000956629
0.00115047
0.00137928
0.00163042
0.00189093
0.00214919
0.00239602
0.00262499
0.00283211
0.00301546
0.00317478
0.00331104
0.00342602
0.00352199
0.00360138
0.00366664
0.00372009
0.00376385
0.00379989
0.00382998
0.00385566
0.00387798
0.00389736
0.00391332
0.00392511
0.00393162
0.00393792
0.00166905
0.00114841
0.00089479
0.000754078
0.000668296
0.000612909
0.000576988
0.000556184
0.000550062
0.000560859
0.000592468
0.000649181
0.000734624
0.000851521
0.00100154
0.00118427
0.00139621
0.00163116
0.00188135
0.00213992
0.00240164
0.00266261
0.00292048
0.00317391
0.00342212
0.0036646
0.00390103
0.0041312
0.00435499
0.00457229
0.0047829
0.00498648
0.00518283
0.00537174
0.00555447
0.00155619
0.00106838
0.000985295
0.00104748
0.00115319
0.00126533
0.00137125
0.001467
0.00155199
0.00162692
0.00169291
0.00175109
0.00180259
0.0018485
0.00188981
0.00192734
0.00196174
0.00199354
0.00202322
0.00205112
0.0020775
0.00210256
0.00212643
0.00214923
0.00217112
0.00219229
0.00221293
0.00223303
0.00225225
0.00226993
0.00228555
0.0022994
0.00231339
0.00233042
0.00235474
0.0016086
0.00114873
0.00108972
0.00117006
0.00128746
0.00140674
0.00151693
0.00161493
0.00170143
0.00177747
0.00184454
0.00190399
0.00195694
0.00200437
0.00204716
0.00208603
0.00212153
0.00215413
0.00218418
0.00221196
0.00223769
0.00226155
0.00228369
0.00230423
0.00232332
0.00234114
0.00235789
0.00237377
0.00238886
0.00240301
0.00241593
0.00242716
0.0024372
0.00244587
0.00246273
0.00166918
0.00114768
0.000894539
0.000756321
0.000677727
0.000639023
0.000636579
0.000674727
0.000759308
0.000892356
0.00107106
0.00128973
0.00154016
0.00181209
0.00209517
0.00238072
0.00266244
0.00293619
0.0031995
0.00345102
0.00369015
0.00391676
0.00413102
0.00433331
0.00452419
0.00470446
0.00487508
0.00503705
0.00519113
0.00533762
0.00547638
0.00560752
0.00573248
0.00585411
0.00597852
0.00144197
0.00098959
0.000935079
0.000986341
0.00106003
0.00113388
0.0012019
0.00126273
0.0013165
0.0013639
0.00140568
0.00144257
0.00147533
0.00150469
0.00153121
0.00155533
0.00157738
0.00159763
0.00161627