/*--------------------------------*- C++ -*----------------------------------*\
| =========                 |                                                 |
| \\      /  F ield         | OpenFOAM: The Open Source CFD Toolbox           |
|  \\    /   O peration     | Version:  2.4.x                                 |
|   \\  /    A nd           | Web:      www.OpenFOAM.org                      |
|    \\/     M anipulation  |                                                 |
\*---------------------------------------------------------------------------*/
FoamFile
{
    version     2.0;
    format      ascii;
    class       volScalarField;
    location    "10000/coolant";
    object      p;
}
// * * * * * * * * * * * * * * * * * * * * * * * * * * * * * * * * * * * * * //

dimensions      [1 -1 -2 0 0 0 0];

internalField   nonuniform List<scalar> 
109760
(
5.25227
4.6404
4.31251
4.10463
3.92164
3.75365
3.5993
3.4542
3.3152
3.18061
3.04932
2.92043
2.79324
2.66719
2.54186
2.41693
2.2922
2.16753
2.04284
1.91809
1.7933
1.66849
1.54369
1.41894
1.29428
1.16975
1.0454
0.921237
0.797299
0.67363
0.550223
0.427213
0.304501
0.182336
0.0627986
5.33215
4.59385
4.30277
4.09902
3.9174
3.75112
3.59759
3.4528
3.31396
3.17947
3.04825
2.91941
2.79227
2.66626
2.54098
2.4161
2.29141
2.16678
2.04212
1.91742
1.79266
1.66788
1.5431
1.41837
1.29374
1.16924
1.0449
0.920757
0.796837
0.673185
0.549787
0.426792
0.304028
0.181915
0.0612718
5.54498
4.5175
4.28103
4.08642
3.90733
3.74424
3.59263
3.44897
3.311
3.17723
3.04663
2.91833
2.79164
2.666
2.54099
2.41631
2.29174
2.16716
2.04252
1.91779
1.79299
1.66816
1.54333
1.41855
1.29386
1.16931
1.04493
0.920758
0.796808
0.673142
0.549708
0.426747
0.30365
0.182273
0.0551224
5.38624
4.56439
4.2979
4.09534
3.9149
3.74929
3.59604
3.45143
3.31274
3.17839
3.04728
2.91854
2.79148
2.66555
2.54033
2.4155
2.29087
2.16627
2.04166
1.91698
1.79225
1.6675
1.54274
1.41804
1.29342
1.16893
1.04461
0.920487
0.796584
0.672951
0.549571
0.426585
0.303833
0.181661
0.0613764
5.46848
4.54124
4.28878
4.09056
3.91106
3.74663
3.59416
3.45001
3.31166
3.17757
3.04667
2.91811
2.79119
2.66537
2.54023
2.41547
2.29087
2.16631
2.04171
1.91704
1.79231
1.66754
1.54278
1.41807
1.29344
1.16895
1.04461
0.920477
0.796561
0.672918
0.549521
0.426548
0.303676
0.181823
0.0586986
5.32078
4.59857
4.30413
4.09951
3.91794
3.7515
3.59786
3.45305
3.31418
3.17968
3.04843
2.91957
2.7924
2.66638
2.54108
2.41619
2.29149
2.16685
2.04219
1.91748
1.79272
1.66794
1.54317
1.41844
1.29381
1.1693
1.04497
0.920825
0.796904
0.673252
0.549859
0.426865
0.304134
0.181963
0.061957
5.17018
4.68687
4.32396
4.11003
3.9269
3.75678
3.60123
3.45566
3.31635
3.18154
3.0501
2.92111
2.79386
2.66777
2.54242
2.4175
2.29279
2.16814
2.04348
1.91877
1.79401
1.66923
1.54446
1.41974
1.29511
1.17061
1.04628
0.922147
0.798236
0.674588
0.551211
0.428214
0.305578
0.183526
0.065568
5.36352
4.58254
4.29825
4.09663
3.91553
3.74982
3.59662
3.45202
3.31331
3.17894
3.04781
2.91905
2.79198
2.66603
2.54078
2.41594
2.29128
2.16666
2.04202
1.91732
1.79257
1.66779
1.54301
1.41829
1.29365
1.16915
1.04481
0.92067
0.79675
0.6731
0.5497
0.42671
0.303897
0.181898
0.0600908
5.20007
4.67095
4.31934
4.10809
3.92488
3.75555
3.60048
3.4551
3.31591
3.18119
3.04981
2.92087
2.79366
2.6676
2.54227
2.41737
2.29266
2.16802
2.04336
1.91864
1.79388
1.66909
1.5443
1.41956
1.29491
1.17038
1.04602
0.921849
0.797904
0.674226
0.550816
0.427794
0.305107
0.182975
0.0641055
5.54401
4.51646
4.28103
4.08656
3.90712
3.74423
3.59272
3.44909
3.31114
3.17742
3.04685
2.9186
2.79196
2.66635
2.54135
2.41666
2.29207
2.16747
2.0428
1.91805
1.79322
1.66836
1.54351
1.41871
1.29401
1.16945
1.04506
0.920878
0.796927
0.673247
0.549789
0.426801
0.303577
0.182352
0.0541986
5.54437
4.5158
4.28102
4.08662
3.9072
3.74429
3.59277
3.44913
3.31116
3.17742
3.04685
2.91859
2.79193
2.66632
2.54132
2.41662
2.29203
2.16743
2.04276
1.918
1.79318
1.66832
1.54347
1.41868
1.29398
1.16941
1.04503
0.920845
0.79689
0.673224
0.549784
0.42683
0.303655
0.182421
0.0541753
5.54068
4.51746
4.28121
4.08674
3.90732
3.74433
3.59275
3.44909
3.31111
3.17736
3.04677
2.9185
2.79184
2.66622
2.54122
2.41654
2.29196
2.16737
2.04271
1.91796
1.79315
1.6683
1.54345
1.41866
1.29396
1.1694
1.04502
0.920841
0.796892
0.673214
0.549759
0.42677
0.303571
0.182294
0.0544772
5.53988
4.5171
4.28115
4.08671
3.90735
3.74435
3.59278
3.44912
3.31114
3.17738
3.04679
2.91852
2.79185
2.66622
2.54121
2.41652
2.29194
2.16735
2.04268
1.91794
1.79312
1.66827
1.54343
1.41864
1.29394
1.16938
1.045
0.920818
0.796864
0.673198
0.549759
0.426803
0.303653
0.182374
0.0544869
5.47519
4.54002
4.28848
4.09037
3.91104
3.74663
3.59416
3.45001
3.31165
3.17756
3.04665
2.91808
2.79115
2.66533
2.54018
2.41542
2.29082
2.16625
2.04165
1.91698
1.79225
1.66749
1.54273
1.41802
1.2934
1.1689
1.04457
0.92044
0.796527
0.672888
0.549494
0.426521
0.303665
0.181784
0.0589261
5.40621
4.57087
4.29251
4.09425
3.91324
3.74839
3.59576
3.45144
3.31293
3.17871
3.0477
2.91905
2.79206
2.66619
2.541
2.41618
2.29154
2.16692
2.04227
1.91755
1.79277
1.66797
1.54317
1.41842
1.29376
1.16924
1.04488
0.920729
0.796797
0.673139
0.54972
0.426734
0.303782
0.182058
0.0575277
5.39397
4.5711
4.29452
4.09479
3.91397
3.74879
3.59591
3.45147
3.31288
3.1786
3.04755
2.91886
2.79184
2.66594
2.54074
2.41593
2.29128
2.16668
2.04205
1.91735
1.79259
1.66781
1.54303
1.4183
1.29366
1.16915
1.04481
0.920666
0.796742
0.673091
0.549684
0.426698
0.303821
0.181955
0.0588598
5.39036
4.56742
4.29586
4.09479
3.91427
3.74889
3.59583
3.45131
3.31268
3.17837
3.0473
2.9186
2.79157
2.66565
2.54045
2.41563
2.29099
2.1664
2.04178
1.91709
1.79236
1.66759
1.54283
1.41811
1.29349
1.16899
1.04466
0.920531
0.796619
0.672978
0.549586
0.426604
0.303798
0.18179
0.0601101
5.46486
4.5428
4.28808
4.09075
3.91081
3.74655
3.59421
3.4501
3.31178
3.17773
3.04687
2.91835
2.79148
2.6657
2.54059
2.41584
2.29125
2.16668
2.04207
1.91738
1.79263
1.66784
1.54306
1.41832
1.29367
1.16915
1.0448
0.920648
0.796717
0.673062
0.549645
0.426669
0.303708
0.182035
0.0572913
5.48615
4.53355
4.2884
4.09061
3.91112
3.74667
3.59418
3.44999
3.31162
3.17751
3.04661
2.91805
2.79114
2.66533
2.54019
2.41544
2.29084
2.16628
2.04168
1.91701
1.79228
1.66752
1.54276
1.41804
1.29342
1.16892
1.04459
0.920452
0.796541
0.672899
0.549501
0.426516
0.303621
0.181738
0.058685
5.33169
4.59225
4.30301
4.09871
3.91731
3.75102
3.59744
3.45264
3.3138
3.17931
3.04809
2.91925
2.79211
2.6661
2.54082
2.41594
2.29126
2.16663
2.04198
1.91728
1.79253
1.66776
1.54299
1.41827
1.29364
1.16914
1.04481
0.920672
0.796757
0.673111
0.549722
0.426732
0.304002
0.181832
0.0618042
5.45402
4.54525
4.29053
4.09137
3.91181
3.74714
3.59451
3.45027
3.31184
3.1777
3.04675
2.91815
2.79119
2.66534
2.54018
2.41541
2.2908
2.16623
2.04162
1.91695
1.79223
1.66747
1.54272
1.41801
1.29339
1.1689
1.04457
0.920441
0.796532
0.672896
0.549507
0.426533
0.303703
0.181756
0.0595104
5.513
4.53164
4.28355
4.08865
3.9085
3.7454
3.59376
3.44998
3.31189
3.17803
3.04735
2.91898
2.79223
2.66653
2.54146
2.41671
2.29207
2.16744
2.04274
1.91797
1.79314
1.66827
1.54342
1.41862
1.29392
1.16936
1.04498
0.920809
0.796867
0.673195
0.549741
0.426749
0.303487
0.182269
0.0538116
5.51309
4.53153
4.28353
4.08865
3.9085
3.74541
3.59376
3.44999
3.3119
3.17804
3.04735
2.91898
2.79223
2.66653
2.54146
2.41671
2.29207
2.16744
2.04274
1.91797
1.79314
1.66827
1.54342
1.41862
1.29392
1.16936
1.04498
0.920799
0.796845
0.673178
0.549733
0.426779
0.303596
0.18242
0.0538359
5.56407
4.50906
4.27976
4.08566
3.90652
3.74381
3.59243
3.44889
3.31101
3.17734
3.04683
2.91862
2.79201
2.66643
2.54145
2.41676
2.29218
2.16757
2.0429
1.91813
1.7933
1.66843
1.54357
1.41876
1.29406
1.16949
1.04509
0.920904
0.796947
0.673283
0.549848
0.426899
0.303703
0.182475
0.0539998
5.56702
4.50856
4.2796
4.08553
3.90642
3.74375
3.59238
3.44885
3.31098
3.17732
3.04682
2.91861
2.79201
2.66643
2.54145
2.41677
2.29218
2.16758
2.0429
1.91814
1.7933
1.66844
1.54358
1.41877
1.29406
1.16949
1.0451
0.920916
0.79696
0.673276
0.549816
0.426833
0.303604
0.18243
0.054043
5.24181
4.64617
4.3138
4.10531
3.92226
3.75403
3.59955
3.45441
3.31537
3.18077
3.04948
2.9206
2.79342
2.66738
2.54206
2.41715
2.29242
2.16775
2.04306
1.91832
1.79353
1.66871
1.54391
1.41915
1.29449
1.16996
1.0456
0.921435
0.797493
0.673819
0.550409
0.427394
0.304686
0.182515
0.0631537
5.58232
4.5066
4.27878
4.08502
3.90615
3.74355
3.59223
3.44875
3.31091
3.17726
3.04677
2.91858
2.79198
2.6664
2.54143
2.41675
2.29217
2.16757
2.0429
1.91813
1.7933
1.66844
1.54358
1.41877
1.29406
1.1695
1.0451
0.920917
0.796959
0.673274
0.549813
0.42683
0.303619
0.182417
0.0542026
5.41594
4.56752
4.29147
4.09368
3.91274
3.74808
3.59558
3.45133
3.31286
3.17868
3.0477
2.91908
2.79211
2.66625
2.54107
2.41626
2.29161
2.16699
2.04233
1.9176
1.79282
1.668
1.5432
1.41844
1.29378
1.16925
1.04489
0.920737
0.796802
0.673143
0.54972
0.426736
0.30376
0.182088
0.0571096
5.56788
4.51754
4.281
4.08637
3.90729
3.74422
3.59262
3.44896
3.31098
3.17721
3.0466
2.9183
2.79161
2.66598
2.54098
2.4163
2.29174
2.16717
2.04253
1.91781
1.79302
1.66818
1.54335
1.41857
1.29389
1.16934
1.04496
0.920787
0.79684
0.673165
0.549715
0.42672
0.30358
0.182167
0.055207
5.45674
4.55045
4.29454
4.09299
3.91335
3.7482
3.59522
3.45079
3.31223
3.17797
3.04694
2.91826
2.79124
2.66534
2.54014
2.41533
2.29071
2.16613
2.04152
1.91686
1.79214
1.66739
1.54264
1.41794
1.29333
1.16884
1.04452
0.920403
0.796507
0.672884
0.549513
0.426528
0.303768
0.181572
0.0613813
5.52421
4.52304
4.28242
4.08738
3.90798
3.74468
3.59294
3.44919
3.31114
3.17732
3.04667
2.91834
2.79162
2.66596
2.54093
2.41624
2.29166
2.16708
2.04244
1.91772
1.79293
1.6681
1.54328
1.4185
1.29382
1.16928
1.0449
0.92073
0.796783
0.673118
0.549686
0.426723
0.303635
0.182239
0.0552662
5.35123
4.58682
4.29979
4.09729
3.91609
3.75019
3.59687
3.45222
3.31348
3.17908
3.04793
2.91915
2.79204
2.66608
2.54082
2.41596
2.29129
2.16667
2.04202
1.91732
1.79257
1.66779
1.54302
1.4183
1.29366
1.16916
1.04482
0.920685
0.796767
0.673118
0.549722
0.426731
0.303947
0.181891
0.0606969
5.56047
4.5104
4.28008
4.08587
3.90664
3.7439
3.59249
3.44894
3.31104
3.17736
3.04684
2.91862
2.79201
2.66642
2.54143
2.41675
2.29216
2.16755
2.04288
1.91811
1.79328
1.66841
1.54355
1.41875
1.29404
1.16947
1.04508
0.920893
0.796937
0.673273
0.549837
0.426889
0.303693
0.182472
0.0539835
5.56185
4.51007
4.27998
4.08579
3.90659
3.74387
3.59247
3.44892
3.31103
3.17735
3.04683
2.91862
2.792
2.66642
2.54143
2.41675
2.29216
2.16756
2.04288
1.91811
1.79328
1.66842
1.54356
1.41875
1.29404
1.16948
1.04509
0.920904
0.796949
0.673267
0.549807
0.426824
0.303589
0.182414
0.0540172
5.20723
4.66937
4.31774
4.10759
3.92441
3.75523
3.60028
3.45495
3.3158
3.18111
3.04975
2.92083
2.79363
2.66758
2.54226
2.41736
2.29266
2.16802
2.04336
1.91864
1.79388
1.66909
1.54431
1.41957
1.29492
1.1704
1.04604
0.921876
0.797931
0.674252
0.550836
0.427807
0.305089
0.182962
0.0633015
5.52407
4.52256
4.28233
4.08743
3.90796
3.74468
3.59294
3.44918
3.31112
3.1773
3.04664
2.91831
2.79159
2.66593
2.54091
2.41622
2.29165
2.16708
2.04244
1.91772
1.79293
1.6681
1.54327
1.4185
1.29382
1.16927
1.0449
0.920731
0.79679
0.673118
0.549673
0.426681
0.303542
0.182127
0.0552175
5.44036
4.55036
4.29041
4.09195
3.91187
3.74725
3.59468
3.45043
3.31201
3.17788
3.04694
2.91836
2.79142
2.66559
2.54045
2.41568
2.29107
2.1665
2.04189
1.91721
1.79247
1.66769
1.54292
1.4182
1.29357
1.16906
1.04472
0.920577
0.796655
0.673007
0.549601
0.426623
0.303723
0.181921
0.0583198
5.4373
4.54974
4.29304
4.09246
3.91281
3.74783
3.59498
3.45061
3.3121
3.17788
3.04688
2.91822
2.79123
2.66535
2.54017
2.41537
2.29075
2.16618
2.04157
1.9169
1.79218
1.66742
1.54268
1.41797
1.29336
1.16887
1.04455
0.920429
0.796527
0.672898
0.54952
0.426542
0.30376
0.181669
0.0606185
5.58147
4.51438
4.28018
4.08584
3.90685
3.74396
3.59246
3.44886
3.31093
3.1772
3.04663
2.91837
2.79171
2.6661
2.5411
2.41643
2.29186
2.16728
2.04263
1.9179
1.79309
1.66825
1.54341
1.41862
1.29393
1.16937
1.04499
0.920813
0.796863
0.673185
0.549731
0.426739
0.303573
0.182228
0.0548404
5.5815
4.51371
4.28005
4.0857
3.90681
3.74393
3.59245
3.44887
3.31095
3.17724
3.04668
2.91842
2.79176
2.66614
2.54115
2.41647
2.2919
2.16732
2.04266
1.91792
1.79311
1.66827
1.54343
1.41864
1.29394
1.16938
1.045
0.920818
0.796863
0.673194
0.549758
0.426799
0.303682
0.182343
0.0548644
5.43294
4.54875
4.29273
4.0932
3.9129
3.74792
3.5951
3.4507
3.31217
3.17796
3.04697
2.91834
2.79137
2.66552
2.54036
2.41558
2.29097
2.16639
2.04178
1.91711
1.79238
1.66761
1.54285
1.41813
1.2935
1.169
1.04467
0.920531
0.796619
0.672974
0.549574
0.426586
0.303709
0.181789
0.0591216
5.3175
4.60277
4.3039
4.09963
3.91797
3.75151
3.59791
3.45312
3.31428
3.17979
3.04854
2.91968
2.79251
2.66648
2.54117
2.41628
2.29158
2.16693
2.04227
1.91755
1.79279
1.668
1.54322
1.41849
1.29385
1.16935
1.045
0.920859
0.796935
0.67328
0.549883
0.426888
0.304143
0.18201
0.0616712
5.34155
4.59053
4.30127
4.09804
3.91676
3.75065
3.5972
3.45247
3.31367
3.17922
3.04803
2.91922
2.79209
2.6661
2.54083
2.41596
2.29128
2.16666
2.04201
1.91731
1.79256
1.66778
1.54301
1.41829
1.29366
1.16916
1.04482
0.920685
0.796768
0.673121
0.549728
0.426737
0.303978
0.18187
0.0611856
5.38624
4.56747
4.29723
4.09525
3.91479
3.74925
3.59605
3.45146
3.31278
3.17844
3.04734
2.91861
2.79155
2.66562
2.5404
2.41558
2.29094
2.16635
2.04173
1.91705
1.79232
1.66756
1.5428
1.41809
1.29348
1.16898
1.04466
0.920531
0.796624
0.672987
0.549602
0.426618
0.303849
0.18174
0.0609232
5.3771
4.58425
4.29529
4.09596
3.91452
3.74921
3.59639
3.45199
3.31342
3.17915
3.04808
2.91938
2.79234
2.66641
2.54118
2.41634
2.29166
2.16703
2.04236
1.91763
1.79285
1.66804
1.54323
1.41848
1.29382
1.1693
1.04494
0.920783
0.796849
0.673189
0.549771
0.42678
0.303862
0.182056
0.0581486
5.5302
4.52251
4.28213
4.08751
3.90775
3.74478
3.59319
3.44949
3.31147
3.17767
3.04705
2.91875
2.79207
2.66642
2.5414
2.41668
2.29208
2.16746
2.04278
1.91801
1.79318
1.66832
1.54347
1.41867
1.29397
1.16941
1.04503
0.920848
0.796901
0.673225
0.549769
0.426779
0.303528
0.182323
0.0539316
5.53123
4.52204
4.28203
4.08739
3.90767
3.74472
3.59316
3.44947
3.31146
3.17768
3.04707
2.91877
2.79209
2.66644
2.54142
2.4167
2.29209
2.16747
2.04279
1.91802
1.79319
1.66833
1.54348
1.41868
1.29398
1.16941
1.04503
0.920844
0.796889
0.673222
0.549779
0.426826
0.303639
0.182448
0.0539348
5.22725
4.65644
4.31521
4.10623
3.92311
3.75448
3.59981
3.4546
3.31552
3.18089
3.04958
2.9207
2.79352
2.66751
2.54221
2.41733
2.29264
2.16799
2.04332
1.91859
1.7938
1.66898
1.54418
1.41942
1.29475
1.17021
1.04585
0.921678
0.797731
0.674052
0.550637
0.427614
0.304897
0.182749
0.0631753
5.29307
4.61766
4.30692
4.10145
3.91922
3.75221
3.59835
3.45346
3.31456
3.18002
3.04875
2.91987
2.79268
2.66664
2.54131
2.4164
2.29169
2.16703
2.04235
1.91762
1.79285
1.66805
1.54326
1.41853
1.29388
1.16937
1.04503
0.92088
0.796954
0.673297
0.5499
0.426903
0.304174
0.182031
0.061946
5.45698
4.55028
4.28741
4.09162
3.91097
3.74691
3.59471
3.4506
3.31225
3.17818
3.04731
2.9188
2.79193
2.66614
2.54103
2.41626
2.29164
2.16703
2.04237
1.91764
1.79285
1.66802
1.54321
1.41844
1.29377
1.16923
1.04487
0.920709
0.796776
0.673113
0.549678
0.426684
0.303585
0.18206
0.0557404
5.49853
4.53295
4.28404
4.08878
3.90888
3.74539
3.59351
3.44965
3.31151
3.17762
3.04691
2.91853
2.79177
2.66608
2.54102
2.4163
2.29171
2.16712
2.04247
1.91773
1.79294
1.66811
1.54328
1.4185
1.29382
1.16928
1.0449
0.920734
0.796788
0.673124
0.549689
0.426724
0.303621
0.182245
0.0550978
5.48842
4.53408
4.28575
4.0891
3.90959
3.74566
3.59353
3.44956
3.31135
3.17738
3.04659
2.91812
2.79129
2.66554
2.54045
2.41572
2.29114
2.16658
2.04197
1.91728
1.79253
1.66775
1.54296
1.41822
1.29358
1.16906
1.04471
0.920555
0.796624
0.672971
0.549556
0.426586
0.303617
0.181977
0.0569783
5.39688
4.56467
4.29546
4.09526
3.91441
3.74909
3.59608
3.45155
3.31289
3.17858
3.0475
2.9188
2.79177
2.66587
2.54067
2.41586
2.29122
2.16662
2.04199
1.9173
1.79255
1.66777
1.543
1.41827
1.29364
1.16913
1.04479
0.920649
0.79673
0.673079
0.549672
0.426677
0.303804
0.181878
0.05928
5.27026
4.63445
4.309
4.10317
3.92043
3.75286
3.5988
3.45385
3.31495
3.18044
3.04922
2.92039
2.79324
2.66722
2.5419
2.41698
2.29225
2.16757
2.04287
1.91812
1.79332
1.6685
1.5437
1.41894
1.29428
1.16975
1.04539
0.921227
0.797286
0.673612
0.550198
0.427183
0.304424
0.182317
0.0617052
5.33214
4.60693
4.3007
4.09907
3.91686
3.75063
3.59735
3.45275
3.31406
3.1797
3.04858
2.91982
2.79272
2.66675
2.54147
2.41659
2.29189
2.16724
2.04255
1.91781
1.79302
1.6682
1.54339
1.41864
1.29397
1.16944
1.04508
0.920919
0.796981
0.673315
0.549897
0.426894
0.304031
0.182104
0.0592217
5.49986
4.53236
4.2841
4.08897
3.90897
3.74544
3.59354
3.44964
3.31148
3.17757
3.04686
2.91847
2.79171
2.66602
2.54097
2.41626
2.29167
2.16709
2.04244
1.91771
1.79292
1.66809
1.54327
1.41849
1.29381
1.16927
1.0449
0.920729
0.796791
0.673122
0.549678
0.426687
0.303538
0.182133
0.0550989
5.40193
4.56172
4.29541
4.0943
3.91403
3.74872
3.59568
3.45118
3.31256
3.17827
3.04721
2.91851
2.79148
2.66557
2.54037
2.41556
2.29093
2.16634
2.04172
1.91705
1.79232
1.66756
1.5428
1.41809
1.29347
1.16898
1.04466
0.920525
0.796617
0.672979
0.549592
0.426609
0.303818
0.181765
0.0604399
5.50546
4.52956
4.28374
4.08831
3.90865
3.74516
3.5933
3.44946
3.31135
3.17748
3.04678
2.91841
2.79165
2.66597
2.54092
2.41621
2.29163
2.16705
2.04241
1.91769
1.79291
1.66808
1.54326
1.41849
1.29382
1.16927
1.0449
0.920734
0.796789
0.673125
0.549693
0.426726
0.303649
0.182224
0.0554776
5.40911
4.5569
4.29627
4.09414
3.9141
3.74871
3.59559
3.45107
3.31245
3.17815
3.04708
2.91837
2.79134
2.66542
2.54022
2.4154
2.29077
2.16619
2.04158
1.91691
1.79219
1.66744
1.54269
1.41799
1.29337
1.16889
1.04457
0.920446
0.796547
0.67292
0.549545
0.426559
0.303806
0.181614
0.0614248
5.34276
4.61184
4.29852
4.09912
3.91633
3.75024
3.59717
3.45267
3.31408
3.17982
3.04879
2.92013
2.79312
2.66722
2.542
2.41714
2.29245
2.16777
2.04306
1.91827
1.79344
1.66857
1.54372
1.41892
1.29422
1.16966
1.04527
0.92109
0.797136
0.673458
0.550023
0.427017
0.304065
0.182268
0.0574472
5.3395
4.58808
4.3024
4.09844
3.91713
3.75092
3.59737
3.45257
3.31372
3.17923
3.04801
2.91918
2.79205
2.66605
2.54078
2.41591
2.29123
2.16661
2.04197
1.91727
1.79252
1.66775
1.54298
1.41827
1.29364
1.16914
1.04481
0.920676
0.796762
0.673116
0.549726
0.426735
0.303995
0.181833
0.0616347
5.55788
4.52204
4.28212
4.0869
3.90787
3.74457
3.59283
3.4491
3.31106
3.17725
3.04659
2.91824
2.79151
2.66584
2.54081
2.41612
2.29156
2.16699
2.04237
1.91766
1.79288
1.66807
1.54325
1.41849
1.29381
1.16927
1.0449
0.920729
0.796783
0.673118
0.549689
0.426722
0.303675
0.182196
0.0558381
5.31658
4.60488
4.30382
4.09972
3.91795
3.75145
3.59786
3.45308
3.31425
3.17976
3.04852
2.91967
2.79251
2.66648
2.54118
2.41628
2.29158
2.16694
2.04227
1.91755
1.79278
1.66799
1.54321
1.41848
1.29384
1.16933
1.04499
0.920843
0.796918
0.673263
0.549864
0.426868
0.304113
0.182
0.0614231
5.21731
4.66646
4.31589
4.10704
3.92378
3.7548
3.60002
3.45477
3.31566
3.181
3.04968
2.92078
2.79359
2.66756
2.54225
2.41736
2.29266
2.16802
2.04335
1.91864
1.79388
1.66909
1.54431
1.41958
1.29493
1.17042
1.04607
0.921912
0.79797
0.674289
0.550867
0.427829
0.305075
0.182951
0.0623297
5.38249
4.56657
4.29835
4.09561
3.91514
3.74948
3.5962
3.45156
3.31285
3.17848
3.04736
2.91861
2.79154
2.6656
2.54037
2.41555
2.2909
2.16631
2.04169
1.91701
1.79228
1.66753
1.54277
1.41807
1.29345
1.16897
1.04464
0.920517
0.796613
0.67298
0.5496
0.426614
0.303867
0.181683
0.061508
5.33884
4.59519
4.30084
4.09824
3.91672
3.75064
3.59729
3.45262
3.31387
3.17946
3.04829
2.91949
2.79237
2.66638
2.54111
2.41624
2.29155
2.16691
2.04225
1.91754
1.79278
1.66798
1.5432
1.41847
1.29382
1.16931
1.04497
0.920821
0.796894
0.673238
0.549833
0.426837
0.304039
0.182003
0.0605447
5.55132
4.51667
4.28066
4.08622
3.90727
3.7442
3.5926
3.44894
3.31097
3.1772
3.0466
2.91829
2.7916
2.66596
2.54094
2.41626
2.29169
2.16712
2.04248
1.91775
1.79296
1.66813
1.5433
1.41852
1.29384
1.16929
1.04491
0.920739
0.796789
0.673124
0.549691
0.426729
0.303645
0.182248
0.0552661
5.45582
4.55133
4.29432
4.0928
3.91321
3.74811
3.59516
3.45074
3.31219
3.17795
3.04692
2.91824
2.79123
2.66533
2.54013
2.41533
2.29071
2.16613
2.04152
1.91685
1.79213
1.66738
1.54263
1.41793
1.29332
1.16884
1.04452
0.920399
0.796503
0.67288
0.549508
0.426523
0.303762
0.181582
0.0612895
5.31972
4.60226
4.30391
4.09993
3.91796
3.75146
3.59787
3.45307
3.31423
3.17975
3.04852
2.91968
2.79253
2.66652
2.54122
2.41633
2.29163
2.16699
2.04232
1.9176
1.79283
1.66804
1.54325
1.41852
1.29388
1.16937
1.04502
0.920873
0.796947
0.673287
0.549882
0.42688
0.304105
0.182008
0.0611703
5.44087
4.56845
4.28834
4.093
3.91138
3.7473
3.59527
3.45132
3.31311
3.17913
3.04832
2.91981
2.79291
2.66707
2.54186
2.417
2.29228
2.16757
2.04282
1.91801
1.79315
1.66827
1.54341
1.4186
1.2939
1.16934
1.04496
0.920784
0.796834
0.673165
0.549723
0.426747
0.303634
0.182231
0.0547038
5.27621
4.63863
4.30739
4.10317
3.92009
3.75255
3.59862
3.45373
3.31487
3.1804
3.04921
2.92041
2.7933
2.66732
2.54205
2.41717
2.29247
2.16781
2.04311
1.91837
1.79356
1.66873
1.5439
1.41913
1.29444
1.16989
1.04551
0.921326
0.797369
0.673683
0.550253
0.427228
0.304401
0.182375
0.0600798
5.40449
4.56002
4.29583
4.0942
3.91404
3.74869
3.59561
3.4511
3.31248
3.17819
3.04712
2.91843
2.7914
2.66549
2.54028
2.41547
2.29084
2.16626
2.04164
1.91697
1.79225
1.66749
1.54274
1.41803
1.29342
1.16893
1.04461
0.920483
0.796579
0.672946
0.549565
0.426583
0.303813
0.181695
0.0609014
5.42322
4.55497
4.29287
4.09302
3.91292
3.74794
3.59512
3.45075
3.31223
3.17801
3.04701
2.91837
2.79139
2.66551
2.54034
2.41555
2.29093
2.16635
2.04174
1.91706
1.79233
1.66757
1.54281
1.4181
1.29347
1.16898
1.04465
0.920513
0.796601
0.67296
0.549567
0.426587
0.303754
0.181808
0.0595484
5.2793
4.62865
4.3083
4.10299
3.92006
3.75266
3.59871
3.45378
3.3149
3.18041
3.04919
2.92036
2.79321
2.66719
2.54187
2.41696
2.29223
2.16755
2.04285
1.9181
1.79331
1.66849
1.54368
1.41892
1.29425
1.16972
1.04536
0.921197
0.797256
0.673582
0.550164
0.427147
0.304363
0.182271
0.0612685
5.44351
4.54489
4.29211
4.09266
3.91257
3.74766
3.59488
3.45052
3.31202
3.17782
3.04685
2.91823
2.79127
2.66542
2.54026
2.41548
2.29087
2.1663
2.04169
1.91702
1.79229
1.66753
1.54277
1.41805
1.29343
1.16893
1.0446
0.920471
0.796561
0.672921
0.549526
0.42654
0.303674
0.181733
0.0592679
5.19249
4.6773
4.31996
4.10858
3.92539
3.75582
3.60064
3.45523
3.31601
3.18128
3.04989
2.92095
2.79373
2.66767
2.54234
2.41744
2.29273
2.16809
2.04343
1.91871
1.79395
1.66917
1.54439
1.41967
1.29503
1.17053
1.0462
0.922056
0.798136
0.674479
0.551084
0.428069
0.305375
0.183266
0.0638728
5.46308
4.54239
4.2889
4.09073
3.91108
3.74665
3.59419
3.45004
3.31168
3.1776
3.0467
2.91815
2.79124
2.66542
2.54029
2.41553
2.29094
2.16637
2.04177
1.91709
1.79236
1.6676
1.54283
1.41811
1.29348
1.16898
1.04465
0.920508
0.79659
0.672945
0.549544
0.426569
0.303682
0.181859
0.0584459
5.56036
4.51244
4.28013
4.08592
3.90681
3.74397
3.5925
3.44892
3.311
3.1773
3.04675
2.91851
2.79187
2.66627
2.54129
2.41661
2.29204
2.16745
2.04279
1.91804
1.79323
1.66837
1.54352
1.41873
1.29403
1.16946
1.04508
0.920894
0.796941
0.673259
0.549801
0.426811
0.303617
0.182341
0.054542
5.43195
4.54832
4.29405
4.09308
3.91324
3.74809
3.59514
3.45071
3.31216
3.17792
3.04689
2.91822
2.79121
2.66532
2.54013
2.41533
2.29071
2.16614
2.04153
1.91686
1.79214
1.66738
1.54263
1.41793
1.29332
1.16883
1.04451
0.920386
0.796488
0.672861
0.549486
0.426503
0.303719
0.18159
0.0608107
5.58011
4.50848
4.27901
4.08523
3.90636
3.74368
3.59231
3.44879
3.31092
3.17725
3.04674
2.91852
2.7919
2.66632
2.54134
2.41666
2.29209
2.1675
2.04283
1.91808
1.79325
1.66839
1.54354
1.41874
1.29403
1.16947
1.04508
0.920896
0.79694
0.673256
0.549797
0.426809
0.303612
0.182363
0.0544071
5.47956
4.54263
4.2854
4.08996
3.90963
3.74597
3.59402
3.45009
3.31188
3.17793
3.04716
2.91873
2.79193
2.6662
2.54111
2.41637
2.29175
2.16714
2.04248
1.91774
1.79293
1.6681
1.54327
1.41849
1.29381
1.16927
1.0449
0.920728
0.796783
0.67312
0.549683
0.426716
0.303609
0.182232
0.0550119
5.40746
4.57458
4.29224
4.09497
3.91336
3.74854
3.59601
3.45175
3.31328
3.17909
3.04811
2.91947
2.79249
2.66661
2.5414
2.41656
2.29188
2.16723
2.04254
1.91779
1.79298
1.66814
1.54332
1.41855
1.29387
1.16933
1.04497
0.920807
0.796874
0.673209
0.549779
0.426779
0.303741
0.182077
0.0566174
5.34311
4.61044
4.29852
4.09945
3.91649
3.75034
3.59724
3.45271
3.31409
3.17981
3.04878
2.92011
2.7931
2.6672
2.54199
2.41714
2.29245
2.16778
2.04307
1.91829
1.79345
1.66859
1.54373
1.41893
1.29423
1.16967
1.04528
0.921102
0.797151
0.673471
0.550033
0.427014
0.304037
0.182214
0.0574255
5.39356
4.56174
4.29747
4.09517
3.91474
3.74917
3.59596
3.45136
3.31268
3.17834
3.04724
2.91852
2.79147
2.66554
2.54032
2.41551
2.29087
2.16628
2.04167
1.91699
1.79227
1.66751
1.54276
1.41805
1.29344
1.16895
1.04463
0.9205
0.796596
0.672963
0.549583
0.426596
0.303833
0.181677
0.0612198
5.41511
4.55415
4.29518
4.09413
3.91382
3.74852
3.59548
3.45099
3.31238
3.17811
3.04707
2.91839
2.79138
2.66549
2.5403
2.4155
2.29088
2.1663
2.04169
1.91702
1.79229
1.66753
1.54278
1.41807
1.29345
1.16896
1.04464
0.920509
0.796603
0.672967
0.54958
0.426593
0.303785
0.181719
0.0603793
5.40171
4.56615
4.29417
4.09491
3.9139
3.74876
3.59591
3.45145
3.31286
3.17858
3.04754
2.91887
2.79187
2.66598
2.54079
2.41598
2.29134
2.16674
2.0421
1.9174
1.79264
1.66785
1.54306
1.41832
1.29368
1.16916
1.04482
0.920668
0.796744
0.673089
0.549674
0.426677
0.303751
0.181919
0.0583699
5.41068
4.5606
4.29363
4.09371
3.91335
3.74827
3.5954
3.45099
3.31244
3.17819
3.04718
2.91852
2.79152
2.66564
2.54045
2.41566
2.29103
2.16645
2.04183
1.91715
1.79241
1.66764
1.54288
1.41816
1.29353
1.16903
1.0447
0.920564
0.796649
0.673005
0.549607
0.426626
0.303781
0.181857
0.0593851
5.16083
4.68984
4.32606
4.11079
3.92755
3.75722
3.60151
3.45587
3.31651
3.18166
3.05019
2.92119
2.79392
2.66782
2.54247
2.41754
2.29283
2.16818
2.04351
1.91881
1.79405
1.66927
1.5445
1.41979
1.29516
1.17066
1.04633
0.922198
0.798287
0.674638
0.55126
0.42826
0.305638
0.1836
0.0665197
5.57169
4.50732
4.27918
4.08526
3.90627
3.74363
3.59229
3.44878
3.31092
3.17727
3.04677
2.91858
2.79197
2.6664
2.54142
2.41674
2.29216
2.16756
2.04288
1.91812
1.79329
1.66842
1.54356
1.41875
1.29405
1.16948
1.04509
0.920903
0.796946
0.673262
0.549802
0.426821
0.3036
0.18242
0.0540955
5.57424
4.50608
4.2789
4.08511
3.9062
3.74359
3.59228
3.44879
3.31095
3.1773
3.04681
2.91862
2.79202
2.66644
2.54147
2.41679
2.2922
2.1676
2.04292
1.91815
1.79332
1.66845
1.54359
1.41878
1.29407
1.1695
1.0451
0.920914
0.796957
0.673292
0.549858
0.426909
0.303717
0.182473
0.0540601
5.38655
4.57673
4.29484
4.0953
3.91422
3.74901
3.59616
3.45173
3.31315
3.17887
3.04781
2.91911
2.79208
2.66617
2.54095
2.41613
2.29147
2.16685
2.0422
1.91749
1.79272
1.66793
1.54314
1.41839
1.29374
1.16923
1.04488
0.920726
0.796797
0.673141
0.549728
0.426739
0.303841
0.182007
0.0585211
5.46022
4.54355
4.28975
4.09104
3.91148
3.74692
3.59436
3.45016
3.31176
3.17764
3.04671
2.91813
2.79119
2.66535
2.5402
2.41543
2.29083
2.16626
2.04166
1.91699
1.79226
1.6675
1.54274
1.41803
1.29341
1.16891
1.04459
0.920453
0.796541
0.672901
0.549509
0.426535
0.303685
0.181785
0.0591139
5.2256
4.65746
4.31587
4.10673
3.92332
3.75461
3.59992
3.45468
3.31557
3.18092
3.0496
2.9207
2.79352
2.66748
2.54218
2.41729
2.29259
2.16794
2.04327
1.91854
1.79376
1.66894
1.54413
1.41937
1.2947
1.17016
1.0458
0.921626
0.797678
0.673997
0.550579
0.427553
0.304826
0.182676
0.0629382
5.37632
4.57797
4.29659
4.09592
3.91493
3.74947
3.59642
3.45188
3.31322
3.17888
3.04778
2.91904
2.79198
2.66605
2.54082
2.41599
2.29133
2.16672
2.04208
1.91738
1.79262
1.66784
1.54306
1.41833
1.29369
1.16918
1.04484
0.920698
0.796775
0.673123
0.549718
0.426729
0.303883
0.181948
0.0594897
5.36799
4.57291
4.29966
4.09659
3.91583
3.75
3.59662
3.45191
3.31315
3.17874
3.04758
2.9188
2.79171
2.66575
2.54051
2.41567
2.29101
2.16641
2.04179
1.9171
1.79237
1.66761
1.54285
1.41814
1.29352
1.16903
1.0447
0.920574
0.796667
0.673029
0.549645
0.426656
0.303909
0.181737
0.0615012
5.30145
4.62437
4.30433
4.10185
3.91877
3.75177
3.59814
3.45336
3.31458
3.18018
3.04905
2.9203
2.79322
2.66727
2.54201
2.41713
2.29242
2.16775
2.04305
1.91829
1.79348
1.66864
1.5438
1.41902
1.29434
1.16979
1.04541
0.921232
0.797282
0.6736
0.550167
0.427144
0.304268
0.182288
0.0593701
5.45945
4.54575
4.28836
4.0911
3.91097
3.7467
3.59436
3.45024
3.3119
3.17784
3.04698
2.91846
2.79158
2.6658
2.54069
2.41594
2.29135
2.16677
2.04215
1.91745
1.79269
1.6679
1.54311
1.41837
1.29371
1.16919
1.04484
0.920683
0.79675
0.673093
0.549673
0.426696
0.303717
0.182073
0.0570465
5.45122
4.54724
4.29188
4.09187
3.91235
3.74752
3.59476
3.45045
3.31197
3.17779
3.04681
2.91817
2.79119
2.66532
2.54015
2.41536
2.29074
2.16617
2.04156
1.9169
1.79217
1.66742
1.54267
1.41796
1.29335
1.16886
1.04454
0.920416
0.796513
0.672883
0.549503
0.426527
0.303733
0.181683
0.0602902
5.24473
4.65444
4.31169
4.10533
3.92205
3.75372
3.59936
3.45427
3.31528
3.18071
3.04945
2.92061
2.79346
2.66745
2.54216
2.41728
2.29259
2.16795
2.04328
1.91857
1.7938
1.669
1.5442
1.41945
1.29479
1.17025
1.04587
0.921693
0.797732
0.674037
0.5506
0.42756
0.30476
0.182672
0.0609622
5.25347
4.64273
4.31156
4.1044
3.9215
3.75351
3.59921
3.45416
3.31518
3.18062
3.04936
2.92049
2.79332
2.66727
2.54194
2.41701
2.29226
2.16757
2.04286
1.91811
1.79331
1.66848
1.54368
1.41892
1.29426
1.16974
1.04538
0.92122
0.797283
0.673614
0.550206
0.427195
0.304465
0.182336
0.0622891
5.29369
4.6196
4.30633
4.1014
3.9191
3.75209
3.59828
3.45342
3.31456
3.18007
3.04883
2.91997
2.7928
2.66677
2.54145
2.41654
2.29182
2.16716
2.04247
1.91774
1.79296
1.66816
1.54337
1.41862
1.29397
1.16946
1.04511
0.920956
0.797025
0.673363
0.549958
0.426956
0.304201
0.182097
0.061519
5.41118
4.55828
4.29422
4.09355
3.91341
3.74826
3.59533
3.45089
3.31233
3.17808
3.04705
2.91838
2.79137
2.66548
2.54029
2.41549
2.29087
2.16628
2.04167
1.917
1.79227
1.66751
1.54275
1.41804
1.29342
1.16893
1.04461
0.920477
0.796569
0.672933
0.549546
0.426566
0.303764
0.181744
0.060148
5.53491
4.52217
4.28221