/*--------------------------------*- C++ -*----------------------------------*\
| =========                 |                                                 |
| \\      /  F ield         | OpenFOAM: The Open Source CFD Toolbox           |
|  \\    /   O peration     | Version:  2.4.x                                 |
|   \\  /    A nd           | Web:      www.OpenFOAM.org                      |
|    \\/     M anipulation  |                                                 |
\*---------------------------------------------------------------------------*/
FoamFile
{
    version     2.0;
    format      ascii;
    class       surfaceScalarField;
    location    "10000/coolant";
    object      phi;
}
// * * * * * * * * * * * * * * * * * * * * * * * * * * * * * * * * * * * * * //

dimensions      [1 0 -1 0 0 0 0];

internalField   nonuniform List<scalar> 
315644
(
6.31237e-05
1.01351e-05
-1.73788e-05
2.12953e-05
-1.74779e-05
6.47647e-05
4.87589e-06
-7.93482e-06
9.80223e-06
-8.38423e-06
6.59692e-05
3.73337e-06
-6.01263e-06
7.45892e-06
-6.38421e-06
6.68888e-05
3.1559e-06
-4.86536e-06
6.09458e-06
-5.30465e-06
6.7636e-05
2.64317e-06
-3.96844e-06
4.98939e-06
-4.41139e-06
6.82551e-05
2.34153e-06
-3.43187e-06
4.34485e-06
-3.87362e-06
6.8761e-05
2.148e-06
-3.06587e-06
3.92398e-06
-3.51195e-06
6.91567e-05
1.99394e-06
-2.76537e-06
3.59218e-06
-3.21651e-06
6.94427e-05
1.86228e-06
-2.50145e-06
3.3115e-06
-2.95834e-06
6.96221e-05
1.74445e-06
-2.26086e-06
3.06107e-06
-2.72397e-06
6.97037e-05
1.63397e-06
-2.03619e-06
2.82575e-06
-2.5052e-06
6.97035e-05
1.52775e-06
-1.82553e-06
2.59767e-06
-2.29963e-06
6.96419e-05
1.42531e-06
-1.62971e-06
2.37417e-06
-2.10817e-06
6.9541e-05
1.32751e-06
-1.45009e-06
2.15595e-06
-1.93254e-06
6.94213e-05
1.23568e-06
-1.2877e-06
1.94566e-06
-1.77397e-06
6.92993e-05
1.15081e-06
-1.14266e-06
1.74635e-06
-1.6325e-06
6.9187e-05
1.07339e-06
-1.0143e-06
1.56059e-06
-1.50736e-06
6.90922e-05
1.00335e-06
-9.01368e-07
1.38994e-06
-1.39713e-06
6.90195e-05
9.40196e-07
-8.02268e-07
1.23477e-06
-1.30001e-06
6.89711e-05
8.83254e-07
-7.15356e-07
1.09472e-06
-1.21415e-06
6.89473e-05
8.3185e-07
-6.3905e-07
9.68885e-07
-1.13788e-06
6.89474e-05
7.8533e-07
-5.71896e-07
8.56089e-07
-1.06966e-06
6.89701e-05
7.43076e-07
-5.12548e-07
7.54966e-07
-1.00815e-06
6.90134e-05
7.04508e-07
-4.5981e-07
6.64141e-07
-9.52163e-07
6.90753e-05
6.69086e-07
-4.12619e-07
5.82281e-07
-9.00697e-07
6.91538e-05
6.36244e-07
-3.70006e-07
5.08127e-07
-8.52843e-07
6.92468e-05
6.05462e-07
-3.31068e-07
4.40435e-07
-8.07812e-07
6.93523e-05
5.76073e-07
-2.95044e-07
3.78179e-07
-7.6474e-07
6.94685e-05
5.47444e-07
-2.61172e-07
3.20321e-07
-7.22768e-07
6.95933e-05
5.19226e-07
-2.29508e-07
2.6703e-07
-6.81631e-07
6.97247e-05
4.90254e-07
-1.99156e-07
2.17301e-07
-6.39784e-07
6.98609e-05
4.61976e-07
-1.71839e-07
1.73323e-07
-5.99616e-07
6.99976e-05
4.26802e-07
-1.40833e-07
1.27088e-07
-5.49707e-07
7.0142e-05
3.94127e-07
-1.08885e-07
7.70748e-08
-5.0667e-07
1.88034e-07
5.9838e-08
-1.22489e-07
-2.08373e-07
4.13527e-05
9.661e-06
-9.79709e-06
-2.17591e-05
2.01976e-05
4.18118e-05
3.01277e-06
-3.18638e-06
-9.43016e-06
9.14473e-06
4.18383e-05
2.15019e-06
-2.1994e-06
-6.74041e-06
6.76306e-06
4.15599e-05
1.39721e-06
-1.39218e-06
-4.98202e-06
5.25545e-06
4.1119e-05
9.43703e-07
-9.05214e-07
-3.71951e-06
4.12193e-06
4.05903e-05
6.68691e-07
-6.08449e-07
-2.89199e-06
3.36037e-06
4.00395e-05
4.60251e-07
-3.95993e-07
-2.31404e-06
2.80061e-06
3.95142e-05
2.88364e-07
-2.3334e-07
-1.88536e-06
2.35567e-06
3.90419e-05
1.45315e-07
-1.07198e-07
-1.56669e-06
2.00083e-06
3.86348e-05
2.51842e-08
-7.2221e-09
-1.33141e-06
1.72057e-06
3.8295e-05
-7.69125e-08
7.43774e-08
-1.15852e-06
1.50088e-06
3.80191e-05
-1.6446e-07
1.42693e-07
-1.03271e-06
1.33039e-06
3.7801e-05
-2.40636e-07
2.01605e-07
-9.42479e-07
1.19956e-06
3.76341e-05
-3.07849e-07
2.53419e-07
-8.78932e-07
1.10031e-06
3.75116e-05
-3.67235e-07
2.99098e-07
-8.34941e-07
1.02557e-06
3.74274e-05
-4.19306e-07
3.39133e-07
-8.04747e-07
9.69115e-07
3.7376e-05
-4.64578e-07
3.7389e-07
-7.83953e-07
9.26048e-07
3.73524e-05
-5.03379e-07
4.03663e-07
-7.69064e-07
8.92355e-07
3.73523e-05
-5.36006e-07
4.2865e-07
-7.57462e-07
8.64928e-07
3.73718e-05
-5.62801e-07
4.49071e-07
-7.47239e-07
8.41414e-07
3.74078e-05
-5.8417e-07
4.65209e-07
-7.37043e-07
8.20084e-07
3.74572e-05
-6.00539e-07
4.77387e-07
-7.25961e-07
7.99698e-07
3.75176e-05
-6.1231e-07
4.85952e-07
-7.13465e-07
7.79425e-07
3.75868e-05
-6.19847e-07
4.91234e-07
-6.99335e-07
7.58768e-07
3.76628e-05
-6.23542e-07
4.93578e-07
-6.836e-07
7.37509e-07
3.77441e-05
-6.23783e-07
4.93295e-07
-6.66383e-07
7.15554e-07
3.78294e-05
-6.20977e-07
4.90702e-07
-6.47938e-07
6.92961e-07
3.79175e-05
-6.15352e-07
4.85922e-07
-6.2821e-07
6.6953e-07
3.80075e-05
-6.07172e-07
4.79173e-07
-6.06921e-07
6.449e-07
3.80984e-05
-5.96412e-07
4.70518e-07
-5.84122e-07
6.19059e-07
3.81893e-05
-5.82828e-07
4.59801e-07
-5.58337e-07
5.90534e-07
3.82791e-05
-5.67503e-07
4.48185e-07
-5.33218e-07
5.62674e-07
3.83659e-05
-5.42971e-07
4.28732e-07
-4.94617e-07
5.22127e-07
3.84547e-05
-5.36952e-07
4.27035e-07
-4.82899e-07
5.03991e-07
-3.35892e-07
2.60712e-07
-1.70796e-07
1.98251e-07
8.40709e-06
1.04825e-05
-3.67634e-06
-6.90673e-06
3.43268e-06
6.96712e-06
3.1339e-06
-9.8341e-07
-1.63527e-06
9.24748e-07
6.1168e-06
1.57489e-06
-3.19615e-07
-7.08439e-07
3.03487e-07
5.67758e-06
8.31459e-07
-2.96882e-08
-3.45191e-07
-1.73609e-08
5.43776e-06
5.002e-07
2.72297e-08
-2.00378e-07
-8.72288e-08
5.29761e-06
3.58856e-07
7.68102e-08
-1.51576e-07
-1.43946e-07
5.21343e-06
2.93675e-07
1.20499e-07
-1.34496e-07
-1.95501e-07
5.16278e-06
2.62328e-07
1.54481e-07
-1.29209e-07
-2.36944e-07
5.13285e-06
2.49883e-07
1.83605e-07
-1.30711e-07
-2.72847e-07
5.11597e-06
2.49974e-07
2.11364e-07
-1.37152e-07
-3.07311e-07
5.10713e-06
2.59066e-07
2.39391e-07
-1.47389e-07
-3.42223e-07
5.10272e-06
2.74468e-07
2.67464e-07
-1.60246e-07
-3.77276e-07
5.10003e-06
2.93432e-07
2.94234e-07
-1.74228e-07
-4.10748e-07
5.09698e-06
3.13107e-07
3.17776e-07
-1.87654e-07
-4.40179e-07
5.09208e-06
3.31031e-07
3.36347e-07
-1.99118e-07
-4.63361e-07
5.08438e-06
3.45509e-07
3.48992e-07
-2.07745e-07
-4.79051e-07
5.07338e-06
3.55644e-07
3.55555e-07
-2.13186e-07
-4.87017e-07
5.059e-06
3.61202e-07
3.56491e-07
-2.155e-07
-4.8781e-07
5.04142e-06
3.62456e-07
3.52672e-07
-2.15038e-07
-4.82515e-07
5.02104e-06
3.5997e-07
3.45135e-07
-2.12288e-07
-4.72434e-07
4.99833e-06
3.54438e-07
3.34906e-07
-2.07776e-07
-4.58862e-07
4.97382e-06
3.46582e-07
3.22921e-07
-2.02004e-07
-4.42989e-07
4.94801e-06
3.37053e-07
3.0995e-07
-1.954e-07
-4.25795e-07
4.92138e-06
3.26384e-07
2.96571e-07
-1.88293e-07
-4.08024e-07
4.89431e-06
3.15026e-07
2.83222e-07
-1.80946e-07
-3.90239e-07
4.86717e-06
3.0333e-07
2.70209e-07
-1.7356e-07
-3.72843e-07
4.84023e-06
2.91614e-07
2.57727e-07
-1.66309e-07
-3.56097e-07
4.8137e-06
2.80222e-07
2.45969e-07
-1.59398e-07
-3.40263e-07
4.7877e-06
2.69244e-07
2.34852e-07
-1.52848e-07
-3.25268e-07
4.76229e-06
2.59133e-07
2.24612e-07
-1.46935e-07
-3.11389e-07
4.73756e-06
2.48705e-07
2.14239e-07
-1.40791e-07
-2.97443e-07
4.71346e-06
2.39918e-07
2.0585e-07
-1.35777e-07
-2.85857e-07
4.69116e-06
2.19558e-07
1.86465e-07
-1.22488e-07
-2.61166e-07
4.66766e-06
2.25513e-07
1.93924e-07
-1.28014e-07
-2.67985e-07
7.09535e-08
4.66546e-10
-1.72506e-08
-3.76549e-08
1.66052e-05
1.67385e-05
8.11954e-06
-1.26971e-05
-1.09851e-05
1.57608e-05
6.06222e-06
2.78039e-06
-4.29543e-06
-3.70277e-06
1.48869e-05
3.67464e-06
1.64195e-06
-2.3872e-06
-2.05549e-06
1.41823e-05
2.25288e-06
9.06127e-07
-1.36437e-06
-1.09008e-06
1.36625e-05
1.41512e-06
5.12768e-07
-8.08445e-07
-5.9964e-07
1.32839e-05
9.48633e-07
3.02779e-07
-5.20921e-07
-3.51913e-07
1.30091e-05
6.71135e-07
1.77203e-07
-3.6095e-07
-2.12577e-07
1.28104e-05
4.91791e-07
9.60749e-08
-2.62448e-07
-1.26681e-07
1.26672e-05
3.73414e-07
4.20041e-08
-2.00321e-07
-7.18905e-08
1.2565e-05
2.94661e-07
4.37764e-09
-1.6119e-07
-3.57006e-08
1.24938e-05
2.41872e-07
-2.35031e-08
-1.36749e-07
-1.04059e-08
1.24463e-05
2.06649e-07
-4.55347e-08
-1.22018e-07
8.41196e-09
1.24175e-05
1.83517e-07
-6.38759e-08
-1.13899e-07
2.3084e-08
1.24037e-05
1.68709e-07
-7.97251e-08
-1.10202e-07
3.50346e-08
1.2402e-05
1.59566e-07
-9.36497e-08
-1.09345e-07
4.50458e-08
1.24104e-05
1.54138e-07
-1.05844e-07
-1.1015e-07
5.35024e-08
1.24269e-05
1.51018e-07
-1.16421e-07
-1.11771e-07
6.06724e-08
1.24501e-05
1.4922e-07
-1.25458e-07
-1.13641e-07
6.67234e-08
1.24786e-05
1.48035e-07
-1.33003e-07
-1.15364e-07
7.17558e-08
1.25116e-05
1.46963e-07
-1.39104e-07
-1.16671e-07
7.58429e-08
1.25481e-05
1.45677e-07
-1.43828e-07
-1.17402e-07
7.90466e-08
1.25874e-05
1.43977e-07
-1.47278e-07
-1.17475e-07
8.14523e-08
1.2629e-05
1.41768e-07
-1.49593e-07
-1.16884e-07
8.31691e-08
1.26722e-05
1.39032e-07
-1.50909e-07
-1.1566e-07
8.42929e-08
1.27167e-05
1.35824e-07
-1.51346e-07
-1.13882e-07
8.48933e-08
1.27621e-05
1.32193e-07
-1.50981e-07
-1.11617e-07
8.50025e-08
1.28081e-05
1.28256e-07
-1.4989e-07
-1.08999e-07
8.46437e-08
1.28544e-05
1.23935e-07
-1.48077e-07
-1.05997e-07
8.38239e-08
1.29009e-05
1.18998e-07
-1.45695e-07
-1.0248e-07
8.27317e-08
1.29473e-05
1.13372e-07
-1.4294e-07
-9.84246e-08
8.15792e-08
1.29935e-05
1.06165e-07
-1.39908e-07
-9.30857e-08
8.06442e-08
1.30393e-05
9.90115e-08
-1.37169e-07
-8.78097e-08
8.00827e-08
1.30836e-05
8.63484e-08
-1.31323e-07
-7.74251e-08
7.8107e-08
1.31303e-05
8.41915e-08
-1.33977e-07
-7.79347e-08
8.11108e-08
-4.88121e-08
-7.43444e-08
3.66382e-08
6.08454e-08
8.29192e-06
-3.67002e-06
2.54192e-06
-7.41529e-06
1.21453e-05
6.82184e-06
-8.38036e-07
4.99319e-07
-1.81246e-06
3.62125e-06
5.97978e-06
-3.57818e-07
2.29717e-07
-6.87719e-07
1.65788e-06
5.54464e-06
-9.68779e-08
1.59196e-08
-3.16732e-07
8.32824e-07
5.30767e-06
-5.90302e-08
-1.60984e-09
-1.43943e-07
4.41557e-07
5.16883e-06
-2.46625e-08
-2.70791e-08
-8.78996e-08
2.78478e-07
5.08433e-06
1.22736e-08
-6.3273e-08
-7.35972e-08
2.09097e-07
5.03268e-06
4.25333e-08
-9.62908e-08
-7.21092e-08
1.77516e-07
5.00215e-06
6.89395e-08
-1.27248e-07
-7.79368e-08
1.66781e-07
4.98575e-06
9.36804e-08
-1.57573e-07
-8.83377e-08
1.6863e-07
4.97925e-06
1.17501e-07
-1.87758e-07
-1.01527e-07
1.78285e-07
4.97997e-06
1.40865e-07
-2.18091e-07
-1.16529e-07
1.93036e-07
4.98611e-06
1.63681e-07
-2.48254e-07
-1.32443e-07
2.10875e-07
4.99638e-06
1.85463e-07
-2.77446e-07
-1.48347e-07
2.30058e-07
5.00978e-06
2.05535e-07
-3.04608e-07
-1.63346e-07
2.49022e-07
5.02545e-06
2.23248e-07
-3.28717e-07
-1.7669e-07
2.66482e-07
5.04267e-06
2.38126e-07
-3.48991e-07
-1.87861e-07
2.8151e-07
5.06077e-06
2.49936e-07
-3.65001e-07
-1.96594e-07
2.93555e-07
5.0792e-06
2.58615e-07
-3.76598e-07
-2.02815e-07
3.02372e-07
5.09748e-06
2.64261e-07
-3.83889e-07
-2.06608e-07
3.07952e-07
5.11525e-06
2.67098e-07
-3.87177e-07
-2.08161e-07
3.10469e-07
5.13223e-06
2.674e-07
-3.86862e-07
-2.07728e-07
3.10214e-07
5.14822e-06
2.65489e-07
-3.83428e-07
-2.05606e-07
3.07555e-07
5.16311e-06
2.61721e-07
-3.77396e-07
-2.02095e-07
3.02882e-07
5.17685e-06
2.56457e-07
-3.69295e-07
-1.97498e-07
2.96597e-07
5.18945e-06
2.50026e-07
-3.59611e-07
-1.92084e-07
2.89062e-07
5.20097e-06
2.42699e-07
-3.48753e-07
-1.8609e-07
2.80627e-07
5.21146e-06
2.34704e-07
-3.37066e-07
-1.79723e-07
2.71587e-07
5.22099e-06
2.26076e-07
-3.2464e-07
-1.7302e-07
2.62026e-07
5.22966e-06
2.17239e-07
-3.11995e-07
-1.6634e-07
2.52438e-07
5.23754e-06
2.07731e-07
-2.98522e-07
-1.59073e-07
2.41956e-07
5.24481e-06
2.00059e-07
-2.87207e-07
-1.53335e-07
2.3325e-07
5.25154e-06
1.8231e-07
-2.63598e-07
-1.38608e-07
2.1322e-07
5.25712e-06
1.91381e-07
-2.71692e-07
-1.47398e-07
2.22108e-07
-3.93384e-08
5.60138e-09
3.31805e-08
-7.44535e-10
4.58921e-05
-1.23272e-05
-2.0843e-05
1.24874e-05
1.87418e-05
4.64432e-05
-4.93426e-06
-8.66872e-06
4.97211e-06
8.07971e-06
4.65482e-05
-3.56617e-06
-6.09376e-06
3.66569e-06
5.88922e-06
4.63166e-05
-2.63498e-06
-4.34502e-06
2.75976e-06
4.4519e-06
4.58955e-05
-1.96494e-06
-3.13658e-06
2.10566e-06
3.41698e-06
4.53581e-05
-1.52445e-06
-2.35866e-06
1.68084e-06
2.7396e-06
4.47749e-05
-1.20659e-06
-1.81428e-06
1.36651e-06
2.23764e-06
4.42018e-05
-9.60501e-07
-1.40715e-06
1.1108e-06
1.82988e-06
4.3675e-05
-7.7044e-07
-1.10161e-06
9.02235e-07
1.49663e-06
4.32128e-05
-6.25116e-07
-8.73187e-07
7.3381e-07
1.2267e-06
4.28213e-05
-5.1437e-07
-7.01923e-07
5.98359e-07
1.00941e-06
4.24993e-05
-4.30215e-07
-5.73023e-07
4.89709e-07
8.35526e-07
4.22418e-05
-3.66269e-07
-4.75634e-07
4.02522e-07
6.96937e-07
4.20421e-05
-3.17597e-07
-4.01537e-07
3.32377e-07
5.8646e-07
4.18933e-05
-2.80403e-07
-3.44679e-07
2.75719e-07
4.98133e-07
4.17888e-05
-2.51677e-07
-3.0062e-07
2.29617e-07
4.27162e-07
4.17225e-05
-2.29176e-07
-2.65987e-07
1.91806e-07
3.69643e-07
4.1689e-05
-2.11231e-07
-2.38271e-07
1.60563e-07
3.22486e-07
4.16834e-05
-1.96546e-07
-2.15649e-07
1.34447e-07
2.8335e-07
4.17015e-05
-1.84122e-07
-1.96817e-07
1.12299e-07
2.50511e-07
4.17397e-05
-1.73228e-07
-1.8087e-07
9.32529e-08
2.22675e-07
4.17947e-05
-1.63348e-07
-1.67142e-07
7.66428e-08
1.98844e-07
4.18637e-05
-1.54154e-07
-1.551e-07
6.19865e-08
1.78206e-07
4.19444e-05
-1.45445e-07
-1.44335e-07
4.89529e-08
1.60124e-07
4.20347e-05
-1.3713e-07
-1.34525e-07
3.73119e-08
1.44067e-07
4.21328e-05
-1.29123e-07
-1.25379e-07
2.68482e-08
1.29549e-07
4.22373e-05
-1.21392e-07
-1.16637e-07
1.73896e-08
1.16137e-07
4.2347e-05
-1.13686e-07
-1.08089e-07
8.61939e-09
1.03489e-07
4.24607e-05
-1.05716e-07
-9.9342e-08
2.0637e-10
9.11458e-08
4.25772e-05
-9.73713e-08
-9.04918e-08
-7.90998e-09
7.92395e-08
4.26951e-05
-8.79633e-08
-8.07462e-08
-1.62393e-08
6.70553e-08
4.28134e-05
-7.88847e-08
-7.18347e-08
-2.37696e-08
5.61526e-08
4.29294e-05
-6.60306e-08
-5.8265e-08
-3.30949e-08
4.14235e-08
4.30506e-05
-5.6991e-08
-4.7772e-08
-4.38859e-08
2.74643e-08
4.22514e-08
9.93249e-08
-1.02583e-07
-1.05953e-07
0.000313226
-1.94233e-05
-9.82666e-06
1.39773e-05
0.000321411
-1.18251e-05
-5.09291e-06
8.73293e-06
0.000327622
-8.77552e-06
-3.75096e-06
6.31549e-06
0.00033309
-7.76375e-06
-3.25831e-06
5.55472e-06
0.000337711
-6.67473e-06
-2.7062e-06
4.75966e-06
0.000341836
-6.00014e-06
-2.38166e-06
4.25668e-06
0.000345672
-5.60662e-06
-2.19179e-06
3.96263e-06
0.000349295
-5.32315e-06
-2.05149e-06
3.75104e-06
0.000352758
-5.11107e-06
-1.94329e-06
3.59211e-06
0.000356097
-4.9536e-06
-1.8593e-06
3.47318e-06
0.000359342
-4.83552e-06
-1.79213e-06
3.38285e-06
0.000362512
-4.74691e-06
-1.737e-06
3.31373e-06
0.000365623
-4.68099e-06
-1.69087e-06
3.26089e-06
0.000368687
-4.63208e-06
-1.65149e-06
3.22037e-06
0.00037171
-4.59517e-06
-1.61713e-06
3.18882e-06
0.000374699
-4.56582e-06
-1.5865e-06
3.16342e-06
0.000377656
-4.54029e-06
-1.55855e-06
3.14186e-06
0.000380581
-4.51558e-06
-1.53236e-06
3.12237e-06
0.000383474
-4.48947e-06
-1.5069e-06
3.10355e-06
0.000386331
-4.46046e-06
-1.48103e-06
3.08446e-06
0.000389148
-4.42771e-06
-1.45343e-06
3.06446e-06
0.000391918
-4.39089e-06
-1.42262e-06
3.04326e-06
0.000394634
-4.34994e-06
-1.38703e-06
3.02076e-06
0.000397288
-4.30486e-06
-1.34526e-06
2.99704e-06
0.000399867
-4.2555e-06
-1.2961e-06
2.97225e-06
0.00040236
-4.20142e-06
-1.23866e-06
2.94648e-06
0.000404755
-4.14179e-06
-1.17248e-06
2.91966e-06
0.000407036
-4.07561e-06
-1.09741e-06
2.89161e-06
0.00040919
-4.0012e-06
-1.01376e-06
2.86155e-06
0.000411201
-3.91762e-06
-9.2279e-07
2.82903e-06
0.000413056
-3.8213e-06
-8.25363e-07
2.79154e-06
0.000414746
-3.71366e-06
-7.25045e-07
2.74908e-06
0.000416252
-3.57144e-06
-6.18488e-07
2.68388e-06
0.000417566
-3.40149e-06
-4.95801e-07
2.58306e-06
-2.31556e-06
-1.58979e-07
1.68036e-06
3.71627e-05
2.07367e-05
-2.09607e-05
-1.40539e-05
1.31763e-05
3.7222e-05
9.48952e-06
-9.23968e-06
-4.42886e-06
4.11969e-06
3.68544e-05
6.92935e-06
-6.43961e-06
-3.00845e-06
2.88636e-06
3.625e-05
5.22307e-06
-4.60297e-06
-1.84375e-06
1.82809e-06
3.55778e-05
3.96951e-06
-3.32646e-06
-1.17651e-06
1.20561e-06
3.4916e-05
3.13346e-06
-2.51689e-06
-7.78022e-07
8.23223e-07
3.43138e-05
2.53581e-06
-1.97681e-06
-4.95154e-07
5.38393e-07
3.37947e-05
2.08539e-06
-1.59853e-06
-2.79823e-07
3.12083e-07
3.33626e-05
1.74747e-06
-1.33326e-06
-1.12594e-07
1.3043e-07
3.30117e-05
1.49698e-06
-1.14862e-06
1.99553e-08
-1.73581e-08
3.27322e-05
1.31347e-06
-1.02177e-06
1.27691e-07
-1.39936e-07
3.25141e-05
1.18134e-06
-9.37128e-07
2.17696e-07
-2.43843e-07
3.23485e-05
1.08855e-06
-8.83516e-07
2.94762e-07
-3.34132e-07
3.22274e-05
1.02481e-06
-8.52038e-07
3.62192e-07
-4.13897e-07
3.21441e-05
9.82122e-07
-8.35754e-07
4.21685e-07
-4.84775e-07
3.20926e-05
9.54329e-07
-8.29282e-07
4.73915e-07
-5.47413e-07
3.20674e-05
9.36336e-07
-8.2836e-07
5.19193e-07
-6.01997e-07
3.2064e-05
9.24104e-07
-8.29749e-07
5.57708e-07
-6.48621e-07
3.20782e-05
9.14593e-07
-8.3106e-07
5.89645e-07
-6.87403e-07
3.21066e-05
9.05664e-07
-8.30686e-07
6.15241e-07
-7.18574e-07
3.2146e-05
8.95874e-07
-8.27653e-07
6.34879e-07
-7.42509e-07
3.21938e-05
8.84256e-07
-8.21418e-07
6.48954e-07
-7.59586e-07
3.22476e-05
8.70333e-07
-8.11851e-07
6.5783e-07
-7.70195e-07
3.23057e-05
8.53958e-07
-7.99082e-07
6.61927e-07
-7.74834e-07
3.23662e-05
8.35265e-07
-7.83455e-07
6.61699e-07
-7.74073e-07
3.2428e-05
8.14524e-07
-7.65402e-07
6.57597e-07
-7.68535e-07
3.24901e-05
7.92184e-07
-7.45475e-07
6.50071e-07
-7.58855e-07
3.25517e-05
7.68629e-07
-7.24149e-07
6.39569e-07
-7.45672e-07
3.26124e-05
7.43862e-07
-7.0152e-07
6.26428e-07
-7.29448e-07
3.26717e-05
7.18348e-07
-6.78123e-07
6.11205e-07
-7.10774e-07
3.27295e-05
6.90304e-07
-6.52283e-07
5.9422e-07
-6.89997e-07
3.27854e-05
6.63162e-07
-6.27544e-07
5.77392e-07
-6.68955e-07
3.28384e-05
6.20836e-07
-5.86873e-07
5.50727e-07
-6.37586e-07
3.28915e-05
6.08851e-07
-5.80663e-07
5.46628e-07
-6.27969e-07
2.88961e-07
-2.57421e-07
2.81065e-07
-3.39498e-07
0.000229458
-2.7718e-05
1.6472e-05
-1.30011e-05
1.22376e-05
0.000235203
-1.48464e-05
7.68446e-06
-5.69839e-06
7.11526e-06
0.000239826
-1.12253e-05
5.85098e-06
-4.44473e-06
5.19575e-06
0.000243766
-9.64206e-06
5.01328e-06
-3.79078e-06
4.47941e-06
0.000247089
-8.13352e-06
4.11136e-06
-3.10495e-06
3.80495e-06
0.000250058
-7.23871e-06
3.59902e-06
-2.72213e-06
3.39263e-06
0.000252807
-6.69464e-06
3.29483e-06
-2.49306e-06
3.14365e-06
0.000255389
-6.29194e-06
3.06764e-06
-2.31965e-06
2.96196e-06
0.000257837
-5.97999e-06
2.89115e-06
-2.18264e-06
2.82367e-06
0.000260172
-5.73362e-06
2.7526e-06
-2.07222e-06
2.71761e-06
0.000262408
-5.531e-06
2.64001e-06
-1.979e-06
2.63448e-06
0.000264548
-5.35696e-06
2.54541e-06
-1.89653e-06
2.56826e-06
0.00026659
-5.20022e-06
2.46342e-06
-1.8203e-06
2.51472e-06
0.000268528
-5.05115e-06
2.38966e-06
-1.7466e-06
2.47027e-06
0.00027035
-4.90173e-06
2.32046e-06
-1.67226e-06
2.43161e-06
0.000272042
-4.74589e-06
2.25257e-06
-1.59452e-06
2.39563e-06
0.000273591
-4.57995e-06
2.18308e-06
-1.51125e-06
2.35946e-06
0.000274985
-4.40274e-06
2.10932e-06
-1.42119e-06
2.32062e-06
0.000276218
-4.21528e-06
2.02888e-06
-1.32431e-06
2.277e-06
0.000277294
-4.02023e-06
1.93971e-06
-1.22179e-06
2.22705e-06
0.00027822
-3.8213e-06
1.8404e-06
-1.11583e-06
2.16991e-06
0.000279016
-3.62234e-06
1.73028e-06
-1.00906e-06
2.10542e-06
0.000279703
-3.42666e-06
1.60959e-06
-9.0402e-07
2.03403e-06
0.000280306
-3.23685e-06
1.47957e-06
-8.02658e-07
1.9568e-06
0.00028085
-3.05442e-06
1.34234e-06
-7.06281e-07
1.87511e-06
0.000281354
-2.87993e-06
1.20051e-06
-6.15618e-07
1.79041e-06
0.000281837
-2.71342e-06
1.05695e-06
-5.30776e-07
1.70411e-06
0.000282311
-2.55462e-06
9.14133e-07
-4.51213e-07
1.61755e-06
0.000282785
-2.40233e-06
7.74044e-07
-3.76389e-07
1.53147e-06
0.000283262
-2.25663e-06
6.39058e-07
-3.06325e-07
1.44695e-06
0.000283743
-2.1144e-06
5.09557e-07
-2.4e-07
1.36345e-06
0.000284229
-1.97918e-06
3.8943e-07
-1.79378e-07
1.28268e-06
0.000284711
-1.82814e-06
2.72425e-07
-1.1916e-07
1.19374e-06
0.000285195
-1.67895e-06
1.40424e-07
-4.67865e-08
1.10124e-06
-9.34871e-07
-1.32293e-07
1.11932e-07
6.29281e-07
7.67309e-06
1.25208e-05
-1.20437e-07
-3.28138e-06
-8.35495e-06
7.16665e-06
4.26871e-06
-1.56072e-07
-9.77326e-07
-2.62888e-06
6.67252e-06
2.54049e-06
-1.72742e-07
-4.66909e-07
-1.4067e-06
6.31784e-06
1.42054e-06
-1.89472e-07
-1.64478e-07
-7.11918e-07
6.07335e-06
8.60498e-07
-1.7611e-07
-4.20795e-08
-3.97818e-07
5.90401e-06
5.46509e-07
-1.79326e-07
3.34317e-08
-2.31278e-07
5.78601e-06
3.53758e-07
-1.90983e-07
8.71484e-08
-1.31924e-07
5.70311e-06
2.31972e-07
-2.05344e-07
1.2639e-07
-7.01099e-08
5.64416e-06
1.53379e-07
-2.2155e-07
1.57459e-07
-3.03473e-08
5.60137e-06
1.02485e-07
-2.39104e-07
1.83699e-07
-4.2888e-09
5.56901e-06
7.08687e-08
-2.57345e-07
2.06488e-07
1.23548e-08
5.54282e-06
5.36481e-08
-2.7579e-07
2.2643e-07
2.18978e-08
5.51947e-06
4.7461e-08
-2.93238e-07
2.43196e-07
2.59314e-08
5.49653e-06
4.92729e-08
-3.08046e-07
2.55982e-07
2.57295e-08
5.47241e-06
5.63598e-08
-3.1899e-07
2.64258e-07
2.24875e-08
5.44622e-06
6.63893e-08
-3.25437e-07
2.67942e-07
1.72978e-08
5.41758e-06
7.75047e-08
-3.27381e-07
2.67417e-07
1.10978e-08
5.38651e-06
8.83419e-08
-3.25298e-07
2.63388e-07
4.63953e-09
5.35326e-06
9.79991e-08
-3.19902e-07
2.56686e-07
-1.52636e-09
5.31823e-06
1.05968e-07
-3.1199e-07
2.48117e-07
-7.07064e-09
5.28193e-06
1.12067e-07
-3.0234e-07
2.38401e-07
-1.18284e-08
5.24482e-06
1.16356e-07
-2.91627e-07
2.28131e-07
-1.57453e-08
5.2073e-06
1.19e-07
-2.80376e-07
2.17736e-07
-1.88461e-08
5.16976e-06
1.2017e-07
-2.68965e-07
2.07517e-07
-2.11787e-08
5.1325e-06
1.20066e-07
-2.57678e-07
1.97686e-07
-2.28084e-08
5.09576e-06
1.18889e-07
-2.46722e-07
1.88379e-07
-2.3808e-08
5.05973e-06
1.16878e-07
-2.36198e-07
1.79633e-07
-2.42842e-08
5.02456e-06
1.14227e-07
-2.26139e-07
1.71428e-07
-2.43439e-08
4.99034e-06
1.11256e-07
-2.16485e-07
1.63634e-07
-2.41936e-08
4.95712e-06
1.08379e-07
-2.07168e-07
1.56123e-07
-2.41182e-08
4.92505e-06
1.05542e-07
-1.97758e-07
1.48492e-07
-2.42352e-08
4.89393e-06
1.04011e-07
-1.8976e-07
1.41902e-07
-2.50096e-08
4.86512e-06
9.86199e-08
-1.75227e-07
1.30229e-07
-2.48138e-08
4.83459e-06
1.04596e-07
-1.79113e-07
1.32873e-07
-2.77984e-08
9.07438e-08
-7.18777e-08
3.72829e-08
-3.736e-08
1.15129e-05
-7.15034e-06
1.45897e-05
1.0335e-07
-6.52525e-06
1.07895e-05
-2.25951e-06
5.0204e-06
-1.72663e-07
-1.86485e-06
1.00843e-05
-1.24843e-06
3.04474e-06
-2.32145e-07
-8.58983e-07
9.56612e-06
-6.82496e-07
1.75818e-06
-2.60575e-07
-2.96938e-07
9.20413e-06
-4.16251e-07
1.09552e-06
-2.41786e-07
-7.54923e-08
8.94999e-06
-2.797e-07
7.18264e-07
-2.41476e-07
5.70493e-08
8.77014e-06
-2.02774e-07
4.85818e-07
-2.51205e-07
1.48012e-07
8.64197e-06
-1.57443e-07
3.37788e-07
-2.63551e-07
2.11378e-07
8.54963e-06
-1.30842e-07
2.41811e-07
-2.77652e-07
2.59025e-07
8.48186e-06
-1.16123e-07
1.79375e-07
-2.92966e-07
2.97479e-07
8.43028e-06
-1.09569e-07
1.40637e-07
-3.09109e-07
3.29626e-07
8.38836e-06
-1.09247e-07
1.20154e-07
-3.25741e-07
3.56757e-07
8.35118e-06
-1.13417e-07
1.13558e-07
-3.41852e-07
3.7889e-07
8.31511e-06
-1.20234e-07
1.16908e-07
-3.55759e-07
3.95146e-07
8.27771e-06
-1.28055e-07
1.26651e-07
-3.66039e-07
4.04848e-07
8.23751e-06
-1.35645e-07
1.39785e-07
-3.71992e-07
4.08056e-07
8.19387e-06
-1.42173e-07
1.53925e-07
-3.73562e-07
4.05451e-07
8.14675e-06
-1.47165e-07
1.67348e-07
-3.71165e-07
3.98103e-07
8.0965e-06
-1.50445e-07
1.78944e-07
-3.65472e-07
3.87218e-07
8.04371e-06
-1.5204e-07
1.88121e-07
-3.57232e-07
3.73943e-07
7.98905e-06
-1.52104e-07
1.94676e-07
-3.47152e-07
3.59241e-07
7.9332e-06
-1.50873e-07
1.987e-07
-3.35872e-07
3.43894e-07
7.8768e-06
-1.4859e-07
2.0042e-07
-3.23905e-07
3.28476e-07
7.82039e-06
-1.45469e-07
2.00134e-07
-3.11615e-07
3.13355e-07
7.76443e-06
-1.41728e-07
1.98214e-07
-2.99299e-07
2.98782e-07
7.70925e-06
-1.37588e-07
1.95036e-07
-2.8721e-07
2.84937e-07
7.65514e-06
-1.33285e-07
1.91034e-07
-2.75526e-07
2.71881e-07
7.60233e-06
-1.29136e-07
1.86728e-07
-2.64571e-07
2.5979e-07
7.551e-06
-1.25222e-07
1.82309e-07
-2.54371e-07
2.48597e-07
7.50127e-06
-1.21622e-07
1.78005e-07
-2.45008e-07
2.38363e-07
7.45336e-06
-1.17468e-07
1.72529e-07
-2.35654e-07
2.28479e-07
7.40698e-06
-1.12692e-07
1.65985e-07
-2.26801e-07
2.19907e-07
7.36389e-06
-1.0184e-07
1.51029e-07
-2.09231e-07
2.0319e-07
7.31851e-06
-9.99248e-08
1.49397e-07
-2.0761e-07
2.0343e-07
-5.71098e-08
1.17544e-07
-8.35467e-08
5.14624e-08
1.38967e-05
-9.05555e-06
-6.71536e-06
8.29885e-06
9.30828e-06
1.2747e-05
-2.64458e-06
-2.24621e-06
3.06084e-06
2.97965e-06
1.17519e-05
-1.23287e-06
-1.3422e-06
1.92322e-06
1.64694e-06
1.10654e-05
-5.15887e-07
-8.34525e-07
1.24224e-06
7.94663e-07
1.06105e-05
-2.3982e-07
-5.67741e-07
8.61795e-07
4.00679e-07
1.03064e-05
-9.7324e-08
-4.52299e-07
6.82092e-07
1.71653e-07
1.01016e-05
-1.0405e-08
-4.04164e-07
5.98534e-07
2.08309e-08
9.96237e-06
4.5162e-08
-3.87649e-07
5.62928e-07
-8.1198e-08
9.86652e-06
8.32708e-08
-3.89907e-07
5.55973e-07
-1.5349e-07
9.79948e-06
1.11606e-07
-4.04622e-07
5.6799e-07
-2.07931e-07
9.75088e-06
1.33994e-07
-4.27859e-07
5.93278e-07
-2.5082e-07
9.71317e-06
1.5191e-07
-4.56873e-07
6.27613e-07
-2.84931e-07
9.68063e-06
1.65576e-07
-4.88167e-07
6.66109e-07
-3.10984e-07
9.64908e-06
1.74922e-07
-5.17823e-07
7.03605e-07
-3.29157e-07
9.61567e-06
1.79945e-07
-5.426e-07
7.35683e-07
-3.39613e-07
9.57866e-06
1.80945e-07
-5.60429e-07
7.59414e-07
-3.42918e-07
9.53723e-06
1.78516e-07
-5.70551e-07
7.73542e-07
-3.40074e-07
9.49125e-06
1.73429e-07
-5.73243e-07
7.78169e-07
-3.32373e-07
9.44106e-06
1.66486e-07
-5.69413e-07
7.74269e-07
-3.21157e-07
9.38731e-06
1.58423e-07
-5.60282e-07
7.63288e-07
-3.07677e-07
9.33077e-06
1.49845e-07
-5.47163e-07
7.4684e-07
-2.92985e-07
9.27226e-06
1.4121e-07
-5.31276e-07
7.2648e-07
-2.77902e-07
9.21253e-06
1.32836e-07
-5.13634e-07
7.0354e-07
-2.63012e-07
9.15227e-06
1.24923e-07
-4.95015e-07
6.79064e-07
-2.48711e-07
9.09207e-06
1.17593e-07
-4.76019e-07
6.53883e-07
-2.35253e-07
9.03243e-06
1.10915e-07
-4.57084e-07
6.28609e-07
-2.22799e-07
8.97373e-06
1.04874e-07
-4.38492e-07
6.03686e-07
-2.11355e-07
8.91627e-06
9.94077e-08
-4.20362e-07
5.79266e-07
-2.00865e-07
8.86028e-06
9.43362e-08
-4.02753e-07
5.55436e-07
-1.91051e-07
8.80587e-06
8.9427e-08
-3.85901e-07
5.32464e-07
-1.81578e-07
8.75325e-06
8.43108e-08
-3.68981e-07
5.0913e-07
-1.71918e-07
8.70211e-06
7.96493e-08
-3.55668e-07
4.90148e-07
-1.62922e-07
8.65451e-06
7.13781e-08
-3.28718e-07
4.53986e-07
-1.49041e-07
8.6035e-06
7.26774e-08
-3.41628e-07
4.67759e-07
-1.47759e-07
-8.58471e-09
-1.3316e-07
2.03447e-07
-2.84577e-08
1.29822e-05
-8.39111e-06
-8.53387e-06
1.06071e-05
7.92134e-06
1.19891e-05
-2.47413e-06
-2.72598e-06
3.72682e-06
2.46634e-06
1.11145e-05
-1.16658e-06
-1.55634e-06
2.2636e-06
1.33397e-06
1.05016e-05
-4.72274e-07
-9.43472e-07
1.42315e-06
6.05522e-07
1.00887e-05
-2.01739e-07
-6.33448e-07
9.71733e-07
2.76307e-07
9.80824e-06
-5.59349e-08
-4.93268e-07
7.48722e-07
8.09386e-08
9.61627e-06
3.54693e-08
-4.29009e-07
6.35222e-07
-4.97094e-08
9.48386e-06
9.41314e-08
-3.99654e-07
5.76398e-07
-1.38466e-07
9.39164e-06
1.34618e-07
-3.90078e-07
5.49388e-07
-2.01702e-07
9.32645e-06
1.6567e-07
-3.93684e-07
5.43321e-07
-2.50126e-07
9.27887e-06
1.90965e-07
-4.06589e-07
5.51961e-07
-2.88756e-07
9.24184e-06
2.11799e-07
-4.26237e-07
5.7123e-07
-3.19755e-07
9.21002e-06
2.28379e-07
-4.49676e-07
5.96972e-07
-3.43858e-07
9.17947e-06
2.40308e-07
-4.73339e-07
6.24496e-07
-3.60919e-07
9.14744e-06
2.47319e-07
-4.941e-07
6.49659e-07
-3.70846e-07
9.11222e-06
2.49568e-07
-5.09912e-07
6.69587e-07
-3.74021e-07
9.07297e-06
2.4762e-07
-5.198e-07
6.82729e-07
-3.71298e-07
9.02953e-06
2.42286e-07
-5.23668e-07
6.88648e-07
-3.63826e-07
8.9822e-06
2.34475e-07
-5.22037e-07
6.87746e-07
-3.52854e-07
8.93157e-06
2.25045e-07
-5.15755e-07
6.80897e-07
-3.39557e-07
8.87836e-06
2.14719e-07
-5.0578e-07
6.69192e-07
-3.24927e-07
8.82335e-06
2.04073e-07
-4.93076e-07
6.53778e-07
-3.09758e-07
8.76724e-06
1.93527e-07
-4.78474e-07
6.35689e-07
-2.94636e-07
8.71069e-06
1.83356e-07
-4.62626e-07
6.15771e-07
-2.7995e-07
8.65424e-06
1.73727e-07
-4.46092e-07
5.94755e-07
-2.65941e-07
8.59835e-06
1.64736e-07
-4.29346e-07
5.73252e-07
-2.52755e-07
8.54337e-06
1.56379e-07
-4.12806e-07
5.5181e-07
-2.404e-07
8.48956e-06
1.48668e-07
-3.9702e-07
5.31074e-07
-2.28916e-07
8.43713e-06
1.4149e-07
-3.82102e-07
5.11203e-07
-2.18196e-07
8.38623e-06
1.34862e-07
-3.68388e-07
4.92732e-07
-2.0828e-07
8.33709e-06
1.28525e-07
-3.54176e-07
4.73709e-07
-1.98955e-07
8.28954e-06
1.23514e-07
-3.40837e-07
4.56278e-07
-1.91354e-07
8.24548e-06
1.14002e-07
-3.12035e-07
4.20938e-07
-1.78712e-07
8.19898e-06
1.16336e-07
-3.12545e-07
4.21574e-07
-1.78984e-07
6.98631e-09
-1.25515e-07
1.93944e-07
-4.53486e-08
4.87903e-06
7.98389e-06
-2.81786e-06
-5.02954e-06
3.71556e-06
2.00239e-06
-6.56645e-07
-1.02031e-06
3.18014e-06
7.57685e-07
-2.4351e-07
-3.36573e-07
2.93763e-06
3.62201e-07
-8.1887e-08
-1.34677e-07
2.81357e-06
1.67541e-07
-4.69152e-08
-5.55955e-08
2.74392e-06
1.023e-07
-2.64321e-08
-3.08839e-08
2.70373e-06
8.63839e-08
-1.06429e-08
-2.32795e-08
2.6808e-06
8.57151e-08
6.7018e-10
-2.09225e-08
2.66859e-06
9.33994e-08
9.48896e-09
-2.17379e-08
2.66353e-06
1.06205e-07
1.70246e-08
-2.44915e-08
2.66345e-06
1.22125e-07
2.3817e-08
-2.83625e-08
2.66699e-06
1.40081e-07
3.01779e-08
-3.29328e-08
2.67324e-06
1.59104e-07
3.61881e-08
-3.78545e-08
2.68153e-06
1.7818e-07
4.17923e-08
-4.28017e-08
2.69136e-06
1.96308e-07
4.68684e-08
-4.74753e-08
2.70231e-06
2.12643e-07
5.12956e-08
-5.16394e-08
2.714e-06
2.26584e-07
5.49917e-08
-5.51368e-08
2.72609e-06
2.37809e-07
5.79283e-08
-5.78927e-08
2.7383e-06
2.46193e-07
6.01066e-08
-5.9888e-08
2.75037e-06
2.51775e-07
6.15603e-08
-6.11474e-08
2.76212e-06
2.54731e-07
6.23491e-08
-6.17283e-08
2.77338e-06
2.55298e-07
6.25361e-08
-6.17042e-08
2.78407e-06
2.53772e-07
6.21947e-08
-6.11623e-08
2.79411e-06
2.50469e-07
6.1406e-08
-6.01911e-08
2.80347e-06
2.45723e-07
6.02537e-08
-5.88806e-08
2.81216e-06
2.39832e-07
5.88108e-08
-5.73118e-08
2.82021e-06
2.33077e-07
5.71338e-08
-5.55576e-08
2.82764e-06
2.25686e-07
5.52681e-08
-5.36832e-08
2.83448e-06
2.177e-07
5.32116e-08
-5.16913e-08
2.84076e-06
2.09588e-07
5.10892e-08
-4.97111e-08
2.84653e-06
2.00635e-07
4.87913e-08
-4.74959e-08
2.85187e-06
1.93538e-07
4.70654e-08
-4.58519e-08
2.85693e-06
1.7564e-07
4.24931e-08
-4.08313e-08
2.86076e-06
1.86375e-07
4.59389e-08
-4.47987e-08
-3.89897e-08
-2.21109e-08
2.0978e-08
4.1281e-05
-9.31981e-06