/*--------------------------------*- C++ -*----------------------------------*\
| =========                 |                                                 |
| \\      /  F ield         | OpenFOAM: The Open Source CFD Toolbox           |
|  \\    /   O peration     | Version:  2.4.x                                 |
|   \\  /    A nd           | Web:      www.OpenFOAM.org                      |
|    \\/     M anipulation  |                                                 |
\*---------------------------------------------------------------------------*/
FoamFile
{
    version     2.0;
    format      ascii;
    class       volVectorField;
    location    "10000/coolant";
    object      U;
}
// * * * * * * * * * * * * * * * * * * * * * * * * * * * * * * * * * * * * * //

dimensions      [0 1 -1 0 0 0 0];

internalField   nonuniform List<vector> 
109760
(
(0.00191264 0.00213055 -0.10301)
(0.000871498 0.00101558 -0.107413)
(0.000658628 0.000779496 -0.109772)
(0.000531537 0.000650985 -0.111378)
(0.00043194 0.000543138 -0.112729)
(0.00037337 0.000478939 -0.113869)
(0.0003345 0.000436931 -0.114809)
(0.000303467 0.000403403 -0.115562)
(0.000276767 0.000374627 -0.116132)
(0.000252533 0.000348712 -0.116519)
(0.000229537 0.000324329 -0.116732)
(0.000207264 0.000300916 -0.116792)
(0.000185673 0.000278452 -0.116731)
(0.000164965 0.000257169 -0.116586)
(0.000145439 0.00023735 -0.116393)
(0.000127365 0.000219187 -0.116185)
(0.000110917 0.000202756 -0.115984)
(9.61571e-05 0.000188014 -0.115808)
(8.30332e-05 0.000174834 -0.115667)
(7.14286e-05 0.000163054 -0.115565)
(6.11906e-05 0.000152508 -0.115504)
(5.21595e-05 0.000143034 -0.115485)
(4.41766e-05 0.000134479 -0.115505)
(3.70971e-05 0.000126704 -0.115561)
(3.07899e-05 0.00011958 -0.11565)
(2.51369e-05 0.000112988 -0.115768)
(2.00245e-05 0.000106817 -0.115913)
(1.53671e-05 0.000100948 -0.11608)
(1.1079e-05 9.52639e-05 -0.116266)
(7.18581e-06 8.97235e-05 -0.116469)
(3.61737e-06 8.41257e-05 -0.116685)
(5.44024e-07 7.87497e-05 -0.116909)
(-2.60456e-06 7.21946e-05 -0.117141)
(-6.22869e-06 6.6168e-05 -0.117366)
(-1.9717e-05 2.85142e-05 -0.117631)
(0.00262844 0.00286094 -0.102088)
(0.000976085 0.00130904 -0.105439)
(0.000699495 0.00095761 -0.105794)
(0.000491479 0.000736043 -0.105288)
(0.000354176 0.000568541 -0.104326)
(0.000266419 0.000455368 -0.10306)
(0.000202159 0.000373767 -0.101662)
(0.000151747 0.000311156 -0.10028)
(0.000112009 0.000263217 -0.0990105)
(8.05523e-05 0.000226943 -0.097898)
(5.54035e-05 0.000199748 -0.0969569)
(3.51285e-05 0.00017962 -0.0961839)
(1.85594e-05 0.000164984 -0.0955652)
(4.8385e-06 0.000154577 -0.095084)
(-6.58941e-06 0.000147318 -0.0947231)
(-1.61281e-05 0.000142299 -0.0944661)
(-2.41034e-05 0.000138821 -0.0942984)
(-3.07685e-05 0.000136323 -0.0942068)
(-3.63124e-05 0.000134378 -0.0941795)
(-4.08907e-05 0.00013267 -0.0942062)
(-4.46386e-05 0.000130975 -0.0942781)
(-4.76726e-05 0.000129143 -0.0943874)
(-5.00886e-05 0.000127082 -0.0945273)
(-5.19612e-05 0.000124748 -0.094692)
(-5.33548e-05 0.000122141 -0.0948763)
(-5.43251e-05 0.000119273 -0.0950756)
(-5.49208e-05 0.000116181 -0.0952864)
(-5.51759e-05 0.000112852 -0.0955056)
(-5.51449e-05 0.000109244 -0.0957307)
(-5.48253e-05 0.000105362 -0.0959595)
(-5.42632e-05 0.000100974 -0.0961894)
(-5.34573e-05 9.66417e-05 -0.0964177)
(-5.19492e-05 9.01063e-05 -0.0966424)
(-5.21175e-05 8.77923e-05 -0.0968552)
(-3.84097e-05 3.64347e-05 -0.0970924)
(0.00150872 0.0023046 -0.0778481)
(0.000401976 0.000620549 -0.0645362)
(0.000211802 0.00025706 -0.054568)
(0.000136586 9.65864e-05 -0.0496588)
(9.26733e-05 4.37639e-05 -0.0470695)
(8.19485e-05 1.77303e-05 -0.0455759)
(8.30665e-05 1.68661e-06 -0.0446812)
(8.7417e-05 -8.71441e-06 -0.044141)
(9.35965e-05 -1.60264e-05 -0.0438177)
(0.00010148 -2.16703e-05 -0.0436309)
(0.000110926 -2.63762e-05 -0.0435301)
(0.000121436 -3.03964e-05 -0.0434801)
(0.000132177 -3.3762e-05 -0.0434549)
(0.000142127 -3.63983e-05 -0.0434342)
(0.000150387 -3.82163e-05 -0.0434029)
(0.000156404 -3.91993e-05 -0.0433507)
(0.000159983 -3.94055e-05 -0.0432716)
(0.000161213 -3.89475e-05 -0.0431633)
(0.000160383 -3.79693e-05 -0.0430265)
(0.000157879 -3.66199e-05 -0.0428639)
(0.000154104 -3.50335e-05 -0.0426792)
(0.000149442 -3.33248e-05 -0.042477)
(0.000144216 -3.15832e-05 -0.0422616)
(0.000138679 -2.9873e-05 -0.0420373)
(0.000133028 -2.82377e-05 -0.0418078)
(0.000127408 -2.67049e-05 -0.0415763)
(0.00012193 -2.52795e-05 -0.0413454)
(0.000116712 -2.39627e-05 -0.0411173)
(0.000111752 -2.2729e-05 -0.0408933)
(0.000107197 -2.15696e-05 -0.0406744)
(0.000102548 -2.04414e-05 -0.0404603)
(9.87133e-05 -1.95233e-05 -0.0402536)
(8.98124e-05 -1.78434e-05 -0.0400482)
(9.27673e-05 -1.82843e-05 -0.0398791)
(1.44745e-05 2.88472e-06 -0.0396303)
(0.00267571 0.00278657 -0.0945473)
(0.000924056 0.00098803 -0.0915444)
(0.00053366 0.000577515 -0.0860172)
(0.000294837 0.000347543 -0.0814561)
(0.00016797 0.000214928 -0.0780708)
(0.000101411 0.000143231 -0.0756063)
(6.2772e-05 0.000101987 -0.0738131)
(3.83792e-05 7.59778e-05 -0.0725145)
(2.24912e-05 5.92263e-05 -0.071577)
(1.17788e-05 4.84541e-05 -0.0709034)
(4.16083e-06 4.15997e-05 -0.0704279)
(-1.57028e-06 3.74023e-05 -0.0701023)
(-6.07859e-06 3.50382e-05 -0.0698934)
(-9.76858e-06 3.39228e-05 -0.069778)
(-1.2865e-05 3.36254e-05 -0.069738)
(-1.54821e-05 3.38164e-05 -0.0697597)
(-1.76976e-05 3.42568e-05 -0.0698319)
(-1.95624e-05 3.47824e-05 -0.0699453)
(-2.11103e-05 3.52758e-05 -0.0700924)
(-2.23668e-05 3.56555e-05 -0.0702667)
(-2.33547e-05 3.58719e-05 -0.0704632)
(-2.41012e-05 3.58997e-05 -0.0706773)
(-2.46389e-05 3.57355e-05 -0.0709055)
(-2.4996e-05 3.53889e-05 -0.0711446)
(-2.51948e-05 3.48815e-05 -0.0713919)
(-2.52472e-05 3.42311e-05 -0.0716452)
(-2.51627e-05 3.34709e-05 -0.0719026)
(-2.49446e-05 3.25879e-05 -0.0721625)
(-2.46418e-05 3.15485e-05 -0.0724235)
(-2.43033e-05 3.03547e-05 -0.0726848)
(-2.39956e-05 2.88265e-05 -0.0729454)
(-2.37669e-05 2.73289e-05 -0.0732045)
(-2.31009e-05 2.45189e-05 -0.0734613)
(-2.38442e-05 2.45242e-05 -0.0737025)
(-1.7086e-05 -5.5156e-06 -0.0739877)
(0.0020753 0.00194953 -0.0762903)
(0.000588595 0.000485518 -0.0623726)
(0.000239678 0.000205229 -0.05269)
(0.000125508 7.48544e-05 -0.0478844)
(6.10218e-05 3.76679e-05 -0.0453537)
(4.02752e-05 1.83958e-05 -0.0438993)
(3.71974e-05 4.35945e-06 -0.0430194)
(3.92538e-05 -5.74223e-06 -0.0424776)
(4.40829e-05 -1.36101e-05 -0.0421502)
(5.06947e-05 -2.03056e-05 -0.0419639)
(5.84233e-05 -2.63254e-05 -0.0418743)
(6.69042e-05 -3.19545e-05 -0.0418544)
(7.5761e-05 -3.72854e-05 -0.0418863)
(8.45684e-05 -4.22826e-05 -0.0419576)
(9.28845e-05 -4.68415e-05 -0.042059)
(0.000100325 -5.08445e-05 -0.0421828)
(0.00010661 -5.41993e-05 -0.0423226)
(0.000111589 -5.686e-05 -0.0424723)
(0.00011521 -5.88136e-05 -0.0426269)
(0.000117502 -6.0083e-05 -0.0427821)
(0.000118558 -6.07182e-05 -0.0429344)
(0.000118504 -6.07794e-05 -0.0430809)
(0.000117491 -6.03384e-05 -0.0432198)
(0.000115679 -5.94751e-05 -0.0433498)
(0.000113231 -5.82713e-05 -0.0434702)
(0.000110293 -5.68028e-05 -0.0435809)
(0.000106997 -5.5129e-05 -0.0436821)
(0.000103452 -5.33012e-05 -0.0437745)
(9.96849e-05 -5.13296e-05 -0.0438585)
(9.58834e-05 -4.92964e-05 -0.0439349)
(9.17702e-05 -4.71391e-05 -0.0440041)
(8.84097e-05 -4.53444e-05 -0.0440678)
(8.06081e-05 -4.15959e-05 -0.0441256)
(8.42996e-05 -4.29782e-05 -0.0441828)
(-8.89509e-06 4.66877e-06 -0.0442144)
(0.00272099 0.00273999 -0.102173)
(0.00116785 0.00112181 -0.105584)
(0.000838602 0.000814725 -0.106114)
(0.000618436 0.000605297 -0.105784)
(0.000462 0.000454905 -0.104991)
(0.000358985 0.000356076 -0.103861)
(0.000283991 0.000283735 -0.102548)
(0.00022532 0.000226551 -0.101205)
(0.000179418 0.000181425 -0.0999384)
(0.000143838 0.000146196 -0.0988068)
(0.000116345 0.000118797 -0.0978348)
(9.51294e-05 9.75243e-05 -0.0970252)
(7.87549e-05 8.09916e-05 -0.0963693)
(6.60606e-05 6.80929e-05 -0.095853)
(5.61528e-05 5.79712e-05 -0.0954605)
(4.83583e-05 4.99536e-05 -0.095176)
(4.21532e-05 4.35288e-05 -0.094985)
(3.71383e-05 3.83137e-05 -0.0948743)
(3.30215e-05 3.40107e-05 -0.0948323)
(2.95943e-05 3.03919e-05 -0.0948488)
(2.67057e-05 2.72888e-05 -0.0949148)
(2.42425e-05 2.45772e-05 -0.0950224)
(2.21119e-05 2.21672e-05 -0.095165)
(2.02411e-05 1.99965e-05 -0.0953367)
(1.85696e-05 1.80214e-05 -0.0955323)
(1.70424e-05 1.62024e-05 -0.0957475)
(1.56101e-05 1.4509e-05 -0.0959787)
(1.42375e-05 1.28872e-05 -0.096223)
(1.28665e-05 1.12695e-05 -0.0964777)
(1.15181e-05 9.64962e-06 -0.0967404)
(1.00889e-05 7.90183e-06 -0.0970079)
(8.80259e-06 6.27475e-06 -0.0972771)
(6.94088e-06 4.06475e-06 -0.0975461)
(5.31966e-06 2.04111e-06 -0.0978042)
(-1.40568e-05 -1.55412e-05 -0.0981017)
(0.00113302 0.000233358 -0.102418)
(0.000694264 0.000116655 -0.106484)
(0.000510089 8.77642e-05 -0.109186)
(0.000447898 7.63986e-05 -0.111014)
(0.000383529 6.36579e-05 -0.112614)
(0.000343212 5.62054e-05 -0.114069)
(0.000319565 5.18285e-05 -0.115398)
(0.000302554 4.85686e-05 -0.116642)
(0.000289776 4.60318e-05 -0.117826)
(0.00028022 4.40419e-05 -0.118964)
(0.000272978 4.24273e-05 -0.120067)
(0.000267457 4.10748e-05 -0.121142)
(0.000263259 3.99126e-05 -0.122194)
(0.00026006 3.88888e-05 -0.12323)
(0.000257587 3.79695e-05 -0.12425)
(0.000255606 3.71367e-05 -0.125259)
(0.000253924 3.63861e-05 -0.126256)
(0.00025239 3.57212e-05 -0.127244)
(0.000250889 3.51481e-05 -0.12822)
(0.00024934 3.46702e-05 -0.129185)
(0.000247697 3.42845e-05 -0.130138)
(0.000245937 3.39759e-05 -0.131076)
(0.000244052 3.37132e-05 -0.131997)
(0.000242042 3.34479e-05 -0.132899)
(0.000239898 3.3114e-05 -0.133778)
(0.000237595 3.26309e-05 -0.134631)
(0.00023509 3.19135e-05 -0.135452)
(0.000232322 3.08792e-05 -0.136238)
(0.000229191 2.94623e-05 -0.136983)
(0.000225634 2.76382e-05 -0.137683)
(0.000221435 2.53983e-05 -0.138333)
(0.000216624 2.28252e-05 -0.138929)
(0.000209858 1.98762e-05 -0.139467)
(0.000200643 1.62815e-05 -0.139934)
(0.00013413 7.44036e-06 -0.140387)
(0.00293426 0.00270457 -0.101266)
(0.00142314 0.000940594 -0.103807)
(0.00102365 0.000656139 -0.103018)
(0.000770594 0.000432466 -0.101446)
(0.000580383 0.000294381 -0.0996073)
(0.000454239 0.000208655 -0.0977158)
(0.000367526 0.000147292 -0.0959377)
(0.000305292 0.000100629 -0.0943742)
(0.000261005 6.4766e-05 -0.0930574)
(0.000230074 3.68751e-05 -0.0919775)
(0.000209002 1.48012e-05 -0.0911106)
(0.000195288 -3.02001e-06 -0.0904274)
(0.000187085 -1.77365e-05 -0.0899011)
(0.000182846 -3.01527e-05 -0.0895085)
(0.00018133 -4.07574e-05 -0.0892295)
(0.000181556 -4.98314e-05 -0.0890465)
(0.000182716 -5.75554e-05 -0.0889436)
(0.00018418 -6.40589e-05 -0.0889069)
(0.00018548 -6.94458e-05 -0.0889245)
(0.000186301 -7.38083e-05 -0.0889858)
(0.000186453 -7.72406e-05 -0.0890817)
(0.000185825 -7.98245e-05 -0.0892043)
(0.000184384 -8.16262e-05 -0.0893468)
(0.000182154 -8.27141e-05 -0.0895032)
(0.000179206 -8.31567e-05 -0.0896686)
(0.000175631 -8.30224e-05 -0.0898391)
(0.000171545 -8.23759e-05 -0.0900114)
(0.000167052 -8.1285e-05 -0.0901833)
(0.00016218 -7.98066e-05 -0.0903531)
(0.000157047 -7.80113e-05 -0.0905198)
(0.000151362 -7.60031e-05 -0.0906822)
(0.000145843 -7.39559e-05 -0.0908401)
(0.000137079 -7.08654e-05 -0.0909922)
(0.000135131 -7.01076e-05 -0.0911345)
(6.44055e-05 -3.82406e-05 -0.0912859)
(0.00148962 0.0011561 -0.102662)
(0.00081767 0.000553675 -0.106886)
(0.000613423 0.000419626 -0.109518)
(0.000528529 0.000358304 -0.111327)
(0.000448081 0.000295266 -0.112913)
(0.000399823 0.000258812 -0.114348)
(0.000370785 0.000237058 -0.115656)
(0.00034959 0.000220908 -0.116874)
(0.000333456 0.000208379 -0.118026)
(0.000321107 0.000198537 -0.119124)
(0.000311483 0.000190535 -0.120174)
(0.00030389 0.000183802 -0.12118)
(0.000297817 0.000177937 -0.122142)
(0.000292784 0.0001726 -0.123058)
(0.000288292 0.00016748 -0.123924)
(0.000283829 0.000162281 -0.124733)
(0.000278921 0.000156736 -0.12548)
(0.000273195 0.000150626 -0.126158)
(0.000266419 0.000143813 -0.126762)
(0.000258526 0.000136251 -0.127292)
(0.000249597 0.000127986 -0.127751)
(0.000239814 0.000119131 -0.128145)
(0.000229406 0.000109843 -0.128483)
(0.000218622 0.000100299 -0.128777)
(0.000207695 9.06805e-05 -0.129038)
(0.000196807 8.11553e-05 -0.129276)
(0.0001861 7.18685e-05 -0.129502)
(0.000175686 6.29196e-05 -0.129721)
(0.000165593 5.43722e-05 -0.129938)
(0.000155889 4.63183e-05 -0.130156)
(0.000146437 3.87161e-05 -0.130376)
(0.000137421 3.17644e-05 -0.130599)
(0.000127546 2.49083e-05 -0.130823)
(0.000117499 1.72433e-05 -0.131038)
(6.91571e-05 -2.21234e-06 -0.131291)
(0.0030735 0.000917035 -0.0927166)
(0.00100034 0.00034617 -0.08858)
(0.000558386 0.000227046 -0.0815877)
(0.000287283 0.000155008 -0.0765942)
(0.000159878 0.00011332 -0.0731693)
(8.905e-05 9.45008e-05 -0.0708011)
(4.51106e-05 8.66822e-05 -0.0691545)
(1.68126e-05 8.43318e-05 -0.0680033)
(-2.20155e-06 8.53447e-05 -0.0671888)
(-1.53885e-05 8.85513e-05 -0.066606)
(-2.45008e-05 9.31845e-05 -0.0661744)
(-3.05193e-05 9.87653e-05 -0.0658387)
(-3.40297e-05 0.000104672 -0.0655536)
(-3.54567e-05 0.000110146 -0.0652851)
(-3.52175e-05 0.000114588 -0.0650098)
(-3.37303e-05 0.000117627 -0.0647134)
(-3.13991e-05 0.000119141 -0.0643889)
(-2.85872e-05 0.000119207 -0.0640345)
(-2.55922e-05 0.000118018 -0.0636523)
(-2.26301e-05 0.000115823 -0.0632462)
(-1.98435e-05 0.000112882 -0.0628221)
(-1.73133e-05 0.00010944 -0.0623857)
(-1.50759e-05 0.000105692 -0.0619422)
(-1.31454e-05 0.000101786 -0.0614964)
(-1.15196e-05 9.78355e-05 -0.0610523)
(-1.01824e-05 9.39264e-05 -0.0606131)
(-9.09511e-06 9.01117e-05 -0.0601814)
(-8.21716e-06 8.64144e-05 -0.0597592)
(-7.4554e-06 8.28386e-05 -0.0593476)
(-6.70807e-06 7.93934e-05 -0.058948)
(-5.90444e-06 7.59262e-05 -0.0585601)
(-4.99188e-06 7.30549e-05 -0.058188)
(-4.0344e-06 6.76612e-05 -0.0578214)
(-3.20482e-06 6.93964e-05 -0.0575089)
(9.49339e-06 3.10117e-05 -0.0570856)
(0.00087131 0.00318345 -0.0933615)
(0.000346925 0.00101913 -0.0896437)
(0.000237053 0.000561553 -0.0829293)
(0.000167172 0.000286446 -0.0780417)
(0.000124133 0.000158115 -0.0746453)
(0.000103919 8.67965e-05 -0.072267)
(9.49251e-05 4.28387e-05 -0.070588)
(9.12421e-05 1.46842e-05 -0.0693956)
(9.08005e-05 -4.08173e-06 -0.0685418)
(9.24676e-05 -1.69698e-05 -0.0679215)
(9.5584e-05 -2.57696e-05 -0.0674601)
(9.97645e-05 -3.14033e-05 -0.0670981)
(0.00010448 -3.45006e-05 -0.0667909)
(0.000109035 -3.55237e-05 -0.0665046)
(0.000112825 -3.49009e-05 -0.0662152)
(0.000115483 -3.3069e-05 -0.0659075)
(0.000116867 -3.0448e-05 -0.0655735)
(0.000117007 -2.74089e-05 -0.0652109)
(0.000116046 -2.42486e-05 -0.0648214)
(0.000114178 -2.11819e-05 -0.0644089)
(0.000111608 -1.83461e-05 -0.0639788)
(0.000108535 -1.58143e-05 -0.0635365)
(0.000105127 -1.36179e-05 -0.0630874)
(0.000101511 -1.17545e-05 -0.0626363)
(9.77978e-05 -1.01971e-05 -0.0621871)
(9.4083e-05 -8.91079e-06 -0.0617429)
(9.04446e-05 -7.83153e-06 -0.0613064)
(8.70021e-05 -6.90327e-06 -0.0608794)
(8.377e-05 -6.09271e-06 -0.0604634)
(8.07899e-05 -5.37624e-06 -0.0600601)
(7.77339e-05 -4.9269e-06 -0.0596695)
(7.4776e-05 -4.84103e-06 -0.0592958)
(6.87852e-05 -5.14303e-06 -0.058928)
(6.82485e-05 -5.49565e-06 -0.0586129)
(3.00566e-05 8.46425e-06 -0.0581884)
(0.0030427 0.00130728 -0.0906699)
(0.000971452 0.000468507 -0.0851149)
(0.000512829 0.0002967 -0.0773429)
(0.000247318 0.000198562 -0.0720656)
(0.000129822 0.000142102 -0.0685996)
(6.77228e-05 0.00011823 -0.0662862)
(3.0219e-05 0.00010939 -0.0647326)
(6.67104e-06 0.000107473 -0.063682)
(-8.75761e-06 0.000109673 -0.062962)
(-1.94407e-05 0.000114696 -0.0624634)
(-2.71484e-05 0.000121727 -0.0621097)
(-3.26696e-05 0.000130099 -0.0618456)
(-3.63494e-05 0.000138901 -0.0616301)
(-3.84302e-05 0.00014712 -0.0614319)
(-3.91196e-05 0.000153898 -0.061229)
(-3.86565e-05 0.000158696 -0.0610071)
(-3.73076e-05 0.000161326 -0.0607585)
(-3.53469e-05 0.000161878 -0.0604804)
(-3.30228e-05 0.000160617 -0.0601739)
(-3.05421e-05 0.000157888 -0.0598424)
(-2.80609e-05 0.00015406 -0.0594906)
(-2.56874e-05 0.000149474 -0.0591237)
(-2.34893e-05 0.000144414 -0.0587468)
(-2.15029e-05 0.000139099 -0.0583644)
(-1.97457e-05 0.000133696 -0.0579807)
(-1.82224e-05 0.000128331 -0.0575992)
(-1.69124e-05 0.000123082 -0.0572225)
(-1.57928e-05 0.000117976 -0.056853)
(-1.47876e-05 0.000113022 -0.0564921)
(-1.38074e-05 0.000108262 -0.0561413)
(-1.27724e-05 0.000103449 -0.0558003)
(-1.16763e-05 9.95653e-05 -0.0554729)
(-1.02317e-05 9.2005e-05 -0.0551488)
(-9.47696e-06 9.50894e-05 -0.0548731)
(6.56469e-06 3.73901e-05 -0.0544829)
(0.00133263 0.00308237 -0.0910788)
(0.00046927 0.000973029 -0.0860744)
(0.000295936 0.000514795 -0.0787336)
(0.000206188 0.000250556 -0.0736848)
(0.000152633 0.000132428 -0.070313)
(0.000129963 6.88246e-05 -0.0680272)
(0.000121704 3.02308e-05 -0.0664664)
(0.000119511 6.05709e-06 -0.0653941)
(0.000120747 -9.76664e-06 -0.0646503)
(0.000124512 -2.08224e-05 -0.0641292)
(0.000130158 -2.87893e-05 -0.0637564)
(0.000137131 -3.44183e-05 -0.0634767)
(0.000144694 -3.81196e-05 -0.0632485)
(0.000151899 -4.01359e-05 -0.0630404)
(0.000157915 -4.06965e-05 -0.0628296)
(0.000162216 -4.00627e-05 -0.0626011)
(0.000164588 -3.85255e-05 -0.0623465)
(0.00016507 -3.63753e-05 -0.0620629)
(0.000163872 -3.38742e-05 -0.0617509)
(0.000161289 -3.12372e-05 -0.0614139)
(0.000157636 -2.86229e-05 -0.0610566)
(0.000153219 -2.61399e-05 -0.0606843)
(0.000148297 -2.38563e-05 -0.0603022)
(0.000143073 -2.18063e-05 -0.059915)
(0.000137711 -1.99966e-05 -0.0595268)
(0.000132344 -1.84182e-05 -0.059141)
(0.000127081 -1.70311e-05 -0.0587604)
(0.000122058 -1.57969e-05 -0.058387)
(0.000117292 -1.46736e-05 -0.0580225)
(0.000112885 -1.36342e-05 -0.0576682)
(0.000108399 -1.27813e-05 -0.0573244)
(0.000104343 -1.2257e-05 -0.056995)
(9.60901e-05 -1.17743e-05 -0.0566709)
(9.63449e-05 -1.20986e-05 -0.0563962)
(3.8e-05 5.4183e-06 -0.0560159)
(0.00158558 0.00144224 -0.06441)
(0.000363823 0.000361165 -0.0473291)
(0.00011934 0.000140716 -0.0385011)
(5.99981e-05 4.70913e-05 -0.0347433)
(2.1898e-05 2.59379e-05 -0.0329025)
(1.33432e-05 1.38063e-05 -0.0318862)
(1.5314e-05 4.14373e-06 -0.0312991)
(1.92741e-05 -2.96096e-06 -0.0309603)
(2.43829e-05 -8.61094e-06 -0.0307706)
(3.03015e-05 -1.35295e-05 -0.0306789)
(3.67063e-05 -1.80268e-05 -0.030654)
(4.34384e-05 -2.22823e-05 -0.030677)
(5.02832e-05 -2.63371e-05 -0.0307354)
(5.69689e-05 -3.0145e-05 -0.0308207)
(6.32053e-05 -3.36155e-05 -0.0309263)
(6.87435e-05 -3.66578e-05 -0.0310471)
(7.34108e-05 -3.92062e-05 -0.0311784)
(7.71227e-05 -4.12326e-05 -0.0313162)
(7.98561e-05 -4.27327e-05 -0.0314568)
(8.164e-05 -4.37264e-05 -0.0315972)
(8.25445e-05 -4.4253e-05 -0.0317348)
(8.26566e-05 -4.43569e-05 -0.0318677)
(8.20802e-05 -4.40902e-05 -0.0319943)
(8.09253e-05 -4.35102e-05 -0.0321137)
(7.93054e-05 -4.26761e-05 -0.0322254)
(7.73213e-05 -4.16406e-05 -0.0323293)
(7.5063e-05 -4.04456e-05 -0.0324256)
(7.26041e-05 -3.91261e-05 -0.0325146)
(6.99534e-05 -3.76854e-05 -0.0325966)
(6.7268e-05 -3.6201e-05 -0.0326721)
(6.43206e-05 -3.46058e-05 -0.0327412)
(6.20364e-05 -3.33507e-05 -0.0328054)
(5.60327e-05 -3.03278e-05 -0.0328635)
(5.99588e-05 -3.21045e-05 -0.0329231)
(-1.90966e-05 9.98932e-06 -0.0329482)
(0.00276 0.0025573 -0.102212)
(0.00146835 0.000899258 -0.105545)
(0.00113136 0.000667919 -0.105302)
(0.00089916 0.000453049 -0.104251)
(0.000716048 0.000320893 -0.1028)
(0.000589869 0.000231463 -0.101124)
(0.000499614 0.000161724 -0.099423)
(0.000433249 0.000106775 -0.0978387)
(0.000385488 6.38271e-05 -0.0964463)
(0.000352461 3.0178e-05 -0.0952692)
(0.000330939 3.4587e-06 -0.094301)
(0.000318307 -1.81451e-05 -0.0935216)
(0.00031234 -3.59447e-05 -0.0929063)
(0.000311005 -5.08354e-05 -0.0924286)
(0.000312419 -6.33035e-05 -0.0920633)
(0.000314984 -7.35943e-05 -0.0917871)
(0.000317519 -8.1861e-05 -0.0915797)
(0.00031921 -8.82166e-05 -0.0914228)
(0.000319576 -9.27686e-05 -0.0913012)
(0.000318392 -9.56647e-05 -0.0912028)
(0.000315616 -9.70842e-05 -0.0911181)
(0.000311359 -9.7217e-05 -0.0910399)
(0.000305807 -9.6278e-05 -0.0909633)
(0.000299177 -9.44852e-05 -0.0908849)
(0.000291692 -9.20458e-05 -0.090803)
(0.000283565 -8.91505e-05 -0.0907167)
(0.000274993 -8.59489e-05 -0.0906258)
(0.00026615 -8.25655e-05 -0.0905309)
(0.000257115 -7.90788e-05 -0.0904328)
(0.00024808 -7.55423e-05 -0.0903326)
(0.000238702 -7.2044e-05 -0.0902314)
(0.000229925 -6.87136e-05 -0.0901314)
(0.000216815 -6.47336e-05 -0.0900308)
(0.000213786 -6.20946e-05 -0.0899396)
(0.000129283 -2.64662e-05 -0.0898298)
(0.0028929 0.00276143 -0.100635)
(0.00143658 0.000935511 -0.102594)
(0.00102631 0.00064141 -0.100972)
(0.000765655 0.000404692 -0.0987456)
(0.000572516 0.000265717 -0.0964418)
(0.000448234 0.000179169 -0.094251)
(0.000366912 0.00011729 -0.0923045)
(0.000311674 7.13823e-05 -0.0906623)
(0.000274564 3.69575e-05 -0.0893229)
(0.000250405 1.07212e-05 -0.0882544)
(0.000235594 -9.78979e-06 -0.0874169)
(0.000227676 -2.63346e-05 -0.0867731)
(0.000224817 -4.00853e-05 -0.0862898)
(0.000225495 -5.17623e-05 -0.0859392)
(0.000228374 -6.18007e-05 -0.0856976)
(0.000232311 -7.04199e-05 -0.0855448)
(0.000236384 -7.77165e-05 -0.0854631)
(0.00023991 -8.37517e-05 -0.0854372)
(0.000242432 -8.85581e-05 -0.0854537)
(0.000243688 -9.21866e-05 -0.0855011)
(0.000243578 -9.4707e-05 -0.08557)
(0.000242117 -9.61859e-05 -0.0856523)
(0.00023941 -9.67098e-05 -0.0857418)
(0.000235601 -9.63885e-05 -0.0858336)
(0.000230867 -9.53442e-05 -0.085924)
(0.000225387 -9.37035e-05 -0.0860105)
(0.000219344 -9.15778e-05 -0.0860915)
(0.000212897 -8.90721e-05 -0.0861663)
(0.000206117 -8.6259e-05 -0.0862344)
(0.000199183 -8.32198e-05 -0.0862964)
(0.000191781 -8.00488e-05 -0.0863525)
(0.000184797 -7.69859e-05 -0.0864043)
(0.000173709 -7.28291e-05 -0.0864507)
(0.000171816 -7.1072e-05 -0.0864949)
(8.73855e-05 -3.16049e-05 -0.0865259)
(0.00291762 0.002817 -0.0977486)
(0.00128271 0.000929018 -0.0972649)
(0.000825732 0.000583209 -0.0934989)
(0.000557299 0.000339345 -0.0898035)
(0.000378644 0.0002064 -0.0866879)
(0.000273864 0.000131618 -0.0841765)
(0.000211408 8.29579e-05 -0.082208)
(0.000172176 4.86788e-05 -0.0807009)
(0.000147659 2.36204e-05 -0.079565)
(0.000132893 4.7074e-06 -0.078717)
(0.000124708 -1.00339e-05 -0.0780924)
(0.000121092 -2.19953e-05 -0.0776413)
(0.000120682 -3.19912e-05 -0.0773269)
(0.000122436 -4.05429e-05 -0.0771223)
(0.000125505 -4.79485e-05 -0.0770069)
(0.000129205 -5.43312e-05 -0.0769648)
(0.000133012 -5.97691e-05 -0.0769831)
(0.000136537 -6.43281e-05 -0.0770504)
(0.000139499 -6.80605e-05 -0.0771569)
(0.000141724 -7.10155e-05 -0.0772944)
(0.000143127 -7.32566e-05 -0.0774556)
(0.000143674 -7.48448e-05 -0.0776343)
(0.00014338 -7.58336e-05 -0.0778253)
(0.000142296 -7.6279e-05 -0.0780241)
(0.000140504 -7.62362e-05 -0.078227)
(0.000138095 -7.57536e-05 -0.078431)
(0.000135177 -7.48705e-05 -0.0786338)
(0.000131837 -7.36302e-05 -0.0788336)
(0.000128094 -7.2074e-05 -0.0790293)
(0.000124077 -7.0288e-05 -0.0792201)
(0.000119541 -6.83558e-05 -0.0794054)
(0.000115268 -6.65579e-05 -0.0795852)
(0.000107735 -6.34912e-05 -0.0797588)
(0.000107728 -6.36574e-05 -0.0799209)
(3.52254e-05 -2.84039e-05 -0.0800985)
(0.00262321 0.00277797 -0.0932172)
(0.00110395 0.000852977 -0.0893648)
(0.000671191 0.000480497 -0.0828071)
(0.000438396 0.000239497 -0.0777986)
(0.000293162 0.00012813 -0.0742316)
(0.000220041 6.73021e-05 -0.0717187)
(0.000184648 2.82073e-05 -0.0699607)
(0.000167257 1.97077e-06 -0.0687316)
(0.000160468 -1.64839e-05 -0.0678732)
(0.000160692 -3.03602e-05 -0.067276)
(0.000165754 -4.15478e-05 -0.0668669)
(0.000174252 -5.10816e-05 -0.0665951)
(0.00018499 -5.94916e-05 -0.0664258)
(0.000196721 -6.69767e-05 -0.0663333)
(0.000208235 -7.35061e-05 -0.0662969)
(0.000218528 -7.89542e-05 -0.0662998)
(0.00022687 -8.32194e-05 -0.0663277)
(0.000232847 -8.62642e-05 -0.0663689)
(0.000236351 -8.81082e-05 -0.0664138)
(0.00023748 -8.88372e-05 -0.0664554)
(0.000236465 -8.85783e-05 -0.0664888)
(0.000233626 -8.74818e-05 -0.0665108)
(0.000229311 -8.5712e-05 -0.06652)
(0.000223856 -8.3431e-05 -0.0665159)
(0.000217573 -8.07881e-05 -0.0664992)
(0.00021073 -7.79166e-05 -0.0664709)
(0.000203548 -7.49123e-05 -0.0664326)
(0.000196223 -7.18544e-05 -0.0663858)
(0.000188822 -6.87687e-05 -0.0663323)
(0.000181555 -6.57023e-05 -0.0662739)
(0.000174045 -6.26374e-05 -0.0662119)
(0.000167427 -5.98851e-05 -0.0661492)
(0.000155582 -5.57247e-05 -0.0660835)
(0.000156741 -5.49197e-05 -0.0660298)
(5.62438e-05 -1.23076e-05 -0.0659362)
(0.00128195 0.00144028 -0.0571723)
(0.000293845 0.000236281 -0.0400858)
(0.000105763 5.42299e-05 -0.0324295)
(3.33164e-05 3.09086e-05 -0.0293952)
(1.85692e-05 8.68883e-06 -0.0279383)
(8.1852e-06 8.36558e-06 -0.0271452)
(-1.02451e-07 1.39574e-05 -0.0266947)
(-5.78781e-06 1.9044e-05 -0.0264392)
(-1.01985e-05 2.40786e-05 -0.0263059)
(-1.41123e-05 2.94945e-05 -0.0262527)
(-1.78148e-05 3.52996e-05 -0.0262538)
(-2.14083e-05 4.14162e-05 -0.0262931)
(-2.49314e-05 4.77375e-05 -0.02636)
(-2.82967e-05 5.39683e-05 -0.0264474)
(-3.13638e-05 5.97565e-05 -0.0265496)
(-3.4029e-05 6.48506e-05 -0.026662)
(-3.62239e-05 6.90785e-05 -0.0267806)
(-3.7913e-05 7.23476e-05 -0.0269021)
(-3.91002e-05 7.4652e-05 -0.0270234)
(-3.98096e-05 7.60321e-05 -0.0271421)
(-4.00828e-05 7.65676e-05 -0.0272562)
(-3.99705e-05 7.63566e-05 -0.0273644)
(-3.95337e-05 7.55159e-05 -0.0274657)
(-3.8835e-05 7.41668e-05 -0.0275597)
(-3.79373e-05 7.2431e-05 -0.0276464)
(-3.68932e-05 7.04123e-05 -0.027726)
(-3.57418e-05 6.82e-05 -0.027799)
(-3.44833e-05 6.58053e-05 -0.0278659)
(-3.31209e-05 6.32349e-05 -0.0279267)
(-3.16932e-05 6.05602e-05 -0.0279816)
(-3.01314e-05 5.75615e-05 -0.0280308)
(-2.89107e-05 5.52087e-05 -0.0280765)
(-2.59852e-05 4.92886e-05 -0.028118)
(-2.77456e-05 5.31939e-05 -0.0281649)
(1.01207e-05 -1.95222e-05 -0.0281777)
(0.00274923 0.00282788 -0.101558)
(0.00113338 0.0011547 -0.104419)
(0.000794561 0.00082541 -0.104235)
(0.000564281 0.000603549 -0.103226)
(0.000406078 0.000445782 -0.101847)
(0.000304363 0.00034228 -0.100278)
(0.000232888 0.00026854 -0.098687)
(0.00017925 0.000212411 -0.0972021)
(0.00013879 0.000169671 -0.0958916)
(0.000108259 0.000137348 -0.0947775)
(8.50308e-05 0.000112922 -0.0938565)
(6.71928e-05 9.44819e-05 -0.0931134)
(5.33769e-05 8.05573e-05 -0.0925285)
(4.25609e-05 7.00175e-05 -0.0920815)
(3.40006e-05 6.20034e-05 -0.0917537)
(2.71671e-05 5.58512e-05 -0.0915279)
(2.16564e-05 5.10607e-05 -0.0913893)
(1.71589e-05 4.72562e-05 -0.0913247)
(1.3449e-05 4.41539e-05 -0.0913228)
(1.03653e-05 4.15427e-05 -0.0913739)
(7.78879e-06 3.927e-05 -0.0914696)
(5.62651e-06 3.72278e-05 -0.0916026)
(3.79972e-06 3.53423e-05 -0.0917665)
(2.24655e-06 3.35665e-05 -0.0919561)
(9.14585e-07 3.18729e-05 -0.0921665)
(-2.43742e-07 3.02368e-05 -0.0923939)
(-1.27235e-06 2.86434e-05 -0.092635)
(-2.20328e-06 2.70455e-05 -0.092887)
(-3.09541e-06 2.53783e-05 -0.0931477)
(-3.94042e-06 2.36323e-05 -0.0934147)
(-4.82424e-06 2.16586e-05 -0.0936853)
(-5.58388e-06 1.97662e-05 -0.0939568)
(-6.62049e-06 1.70126e-05 -0.0942274)
(-7.93114e-06 1.51979e-05 -0.094486)
(-2.01308e-05 -8.40957e-06 -0.0947857)
(0.00207402 0.00191558 -0.0770548)
(0.000595963 0.000471885 -0.0633714)
(0.000231885 0.000208263 -0.053782)
(0.000119911 7.67812e-05 -0.0489737)
(5.82255e-05 3.80623e-05 -0.0464546)
(3.6412e-05 1.88931e-05 -0.0450006)
(3.1525e-05 5.21577e-06 -0.0441132)
(3.20261e-05 -4.5953e-06 -0.0435673)
(3.51967e-05 -1.20751e-05 -0.0432335)
(3.99689e-05 -1.83162e-05 -0.0430411)
(4.56957e-05 -2.38085e-05 -0.0429468)
(5.20804e-05 -2.88899e-05 -0.0429237)
(5.88414e-05 -3.36874e-05 -0.0429541)
(6.56574e-05 -3.81963e-05 -0.0430259)
(7.21942e-05 -4.23396e-05 -0.04313)
(7.81627e-05 -4.60254e-05 -0.0432593)
(8.33549e-05 -4.91818e-05 -0.043408)
(8.76524e-05 -5.17727e-05 -0.0435707)
(9.09982e-05 -5.37863e-05 -0.043743)
(9.33879e-05 -5.5234e-05 -0.0439207)
(9.48674e-05 -5.61515e-05 -0.0441006)
(9.54984e-05 -5.65772e-05 -0.0442797)
(9.53633e-05 -5.65581e-05 -0.0444558)
(9.45568e-05 -5.61487e-05 -0.0446271)
(9.31844e-05 -5.54076e-05 -0.0447923)
(9.13391e-05 -5.43846e-05 -0.0449505)
(8.91122e-05 -5.31194e-05 -0.0451013)
(8.65752e-05 -5.16437e-05 -0.0452446)
(8.37421e-05 -4.99664e-05 -0.04538)
(8.07882e-05 -4.81885e-05 -0.0455078)
(7.75007e-05 -4.62791e-05 -0.0456282)
(7.4852e-05 -4.4753e-05 -0.0457425)
(6.8438e-05 -4.134e-05 -0.0458507)
(7.21505e-05 -4.3056e-05 -0.0459548)
(-1.06844e-05 4.69288e-06 -0.0460322)
(0.00271592 0.000141483 -0.1022)
(0.00107671 6.33785e-05 -0.105339)
(0.000766046 4.93992e-05 -0.10413)
(0.000515194 3.60425e-05 -0.102294)
(0.000357862 2.77065e-05 -0.1002)
(0.000243732 2.25123e-05 -0.0980902)
(0.000157245 1.91134e-05 -0.0961549)
(9.23426e-05 1.69784e-05 -0.094477)
(4.38703e-05 1.57924e-05 -0.0930671)
(7.8622e-06 1.532e-05 -0.0918939)
(-1.82797e-05 1.53579e-05 -0.090907)
(-3.59694e-05 1.57147e-05 -0.0900674)
(-4.65448e-05 1.6205e-05 -0.0893234)
(-5.15155e-05 1.66955e-05 -0.0886352)
(-5.22344e-05 1.70838e-05 -0.0879749)
(-4.9943e-05 1.73043e-05 -0.087325)
(-4.57317e-05 1.73332e-05 -0.0866761)
(-4.04916e-05 1.71797e-05 -0.0860244)
(-3.48962e-05 1.68684e-05 -0.0853697)
(-2.94157e-05 1.64349e-05 -0.084714)
(-2.4346e-05 1.59184e-05 -0.0840603)
(-1.98384e-05 1.53499e-05 -0.0834118)
(-1.59464e-05 1.47532e-05 -0.0827716)
(-1.26713e-05 1.41455e-05 -0.0821425)
(-9.97526e-06 1.35444e-05 -0.0815268)
(-7.79121e-06 1.29704e-05 -0.080926)
(-6.03283e-06 1.24347e-05 -0.0803412)
(-4.61933e-06 1.19457e-05 -0.079773)
(-3.46882e-06 1.14953e-05 -0.079222)
(-2.51856e-06 1.1018e-05 -0.0786892)
(-1.7857e-06 1.04798e-05 -0.0781754)
(-1.22866e-06 9.85257e-06 -0.0776853)
(-1.08072e-06 8.86607e-06 -0.0772103)
(-6.63469e-08 8.67694e-06 -0.0767937)
(1.32395e-05 4.9775e-06 -0.0762867)
(8.89645e-05 0.00271828 -0.102214)
(5.67686e-05 0.0010755 -0.105365)
(5.2635e-05 0.000765039 -0.104165)
(4.39501e-05 0.000514016 -0.10233)
(3.60626e-05 0.000356906 -0.100233)
(3.06358e-05 0.000243075 -0.0981205)
(2.69183e-05 0.000156848 -0.0961818)
(2.42937e-05 9.20963e-05 -0.0945012)
(2.24178e-05 4.36766e-05 -0.0930891)
(2.10727e-05 7.7057e-06 -0.0919143)
(2.01037e-05 -1.83966e-05 -0.0909267)
(1.94817e-05 -3.60658e-05 -0.0900861)
(1.91773e-05 -4.66242e-05 -0.0893413)
(1.90592e-05 -5.15722e-05 -0.0886524)
(1.90324e-05 -5.22609e-05 -0.0879915)
(1.90351e-05 -4.99351e-05 -0.0873412)
(1.9025e-05 -4.56905e-05 -0.086692)
(1.89748e-05 -4.04222e-05 -0.0860401)